/*--------------------------------*- C++ -*----------------------------------*\
  =========                 |
  \\      /  F ield         | OpenFOAM: The Open Source CFD Toolbox
   \\    /   O peration     | Website:  https://openfoam.org
    \\  /    A nd           | Version:  7
     \\/     M anipulation  |
\*---------------------------------------------------------------------------*/
FoamFile
{
    version     2.0;
    format      ascii;
    class       volScalarField;
    location    "0.9975";
    object      p;
}
// * * * * * * * * * * * * * * * * * * * * * * * * * * * * * * * * * * * * * //

dimensions      [0 2 -2 0 0 0 0];

internalField   nonuniform List<scalar> 
76362
(
2263.65
2263.06
2262.67
2262.45
2262.24
2262
2261.74
2261.47
2261.2
2260.91
2260.61
2260.3
2259.97
2259.61
2259.23
2258.82
2258.38
2257.92
2257.42
2256.9
2256.34
2255.75
2255.13
2254.47
2253.77
2253.03
2252.25
2251.44
2250.58
2249.67
2248.72
2247.72
2246.67
2245.57
2244.41
2243.2
2241.93
2240.6
2239.21
2237.74
2236.22
2234.61
2232.94
2231.19
2229.35
2227.44
2225.44
2223.34
2221.16
2218.87
2216.49
2214
2211.4
2208.69
2205.86
2202.91
2199.83
2196.63
2193.29
2189.85
2186.21
2182.41
2178.53
2174.34
2170.12
2165.67
2160.79
2155.84
2150.65
2145.41
2139.74
2133.97
2127.96
2121.82
2115.1
2108.68
2101.68
2094.38
2086.99
2079.39
2071.67
2063.38
2054.77
2045.96
2036.61
2026.78
2016.65
2006.25
1995.54
1984.89
1973.94
1962.8
1951.16
1939.06
1926.53
1913.65
1900.4
1886.78
1872.75
1858.29
1843.45
1828.15
1812.46
1796.35
1779.84
1762.84
1745.43
1727.58
1709.28
1690.58
1671.4
1651.8
1631.7
1611.19
1590.25
1568.82
1546.92
1524.59
1501.81
1478.59
1454.91
1430.77
1406.08
1380.92
1355.34
1329.24
1302.67
1275.51
1248.01
1219.71
1191.15
1161.53
1131.84
1100.86
1069.77
1037.15
1004.43
969.873
934.57
895.689
861.995
823.192
791.366
749.764
722.373
676.522
655.517
623.886
590.767
563.795
532.404
502.287
474.434
449.804
423.123
396.095
369.58
347.334
325.505
303.397
283.482
268.679
256.582
248.062
247.178
256.104
273.037
297.105
327.58
377.931
454.818
530.657
620.272
714.864
813.203
909.535
1004.86
1091.85
1168.02
1228.09
1273.77
1309.36
1328.63
1334.51
1321.31
1317.22
1283.42
1252.32
1189.24
1160.36
1096.42
1059.92
979.479
964.44
859.149
868.38
683.704
709
737.442
645.759
484.07
625.208
-153.612
-152.759
-152.015
-151.439
-150.885
-150.303
-149.697
-149.083
-148.463
-147.835
-147.197
-146.548
-145.886
-145.208
-144.515
-143.806
-143.079
-142.335
-141.572
-140.791
-139.989
-139.167
-138.323
-137.456
-136.566
-135.652
-134.713
-133.748
-132.756
-131.737
-130.69
-129.614
-128.507
-127.37
-126.201
-124.999
-123.763
-122.492
-121.185
-119.841
-118.459
-117.038
-115.576
-114.072
-112.525
-110.935
-109.298
-107.615
-105.883
-104.102
-102.27
-100.385
-98.4463
-96.4485
-94.405
-92.2813
-90.144
-87.8541
-85.6589
-83.6207
-80.7853
-78.4347
-75.9574
-73.0104
-71.9434
-69.6167
-65.6511
-62.6891
-60.3592
-57.6681
-53.4525
-50.464
-48.1467
-44.6404
-39.9679
-37.4614
-33.7239
-29.6628
-25.6082
-22.9169
-20.4809
-16.8622
-12.8513
-8.82297
-3.81349
1.72196
7.15894
12.5539
17.7166
21.6342
25.3948
29.0039
33.365
38.2878
43.3943
48.5234
53.7805
59.1369
64.6289
70.1822
75.7141
81.5083
87.4189
93.5997
99.8001
106.302
112.834
119.493
126.251
133.299
140.605
148.03
155.583
163.265
171.223
179.523
188.008
196.806
205.819
215.56
225.468
235.623
245.704
255.87
266.722
278.001
289.832
301.864
314.376
326.933
340.085
353.04
366.649
378.923
391.711
401.333
412.845
424.504
430.09
442.96
461.707
480.896
496.527
509.594
524.117
538.093
551.69
565.634
579.128
589.576
603.826
608.822
620.81
635.301
644.485
652.594
661.128
672.048
681.188
685.182
684.089
691.494
702.078
712.52
726.748
743.619
762.116
783.85
808.003
829.58
856.868
892.344
926.161
954.886
978.364
994.002
1008.9
1018.97
1025.4
1021.69
1014.19
1006.93
999.235
965.611
949.58
938.358
939.386
918.734
876.11
834.54
801.038
760.564
724.771
684.387
629.939
580.87
553.264
528.321
459.729
409.481
397.952
409.461
1678.99
1678.28
1677.81
1677.56
1677.33
1677.07
1676.79
1676.5
1676.2
1675.89
1675.56
1675.22
1674.86
1674.48
1674.09
1673.67
1673.24
1672.78
1672.31
1671.82
1671.3
1670.76
1670.21
1669.63
1669.03
1668.4
1667.75
1667.08
1666.38
1665.65
1664.89
1664.11
1663.29
1662.45
1661.57
1660.65
1659.7
1658.72
1657.69
1656.63
1655.52
1654.38
1653.18
1651.94
1650.66
1649.32
1647.93
1646.49
1644.99
1643.44
1641.82
1640.15
1638.41
1636.61
1634.74
1632.8
1630.78
1628.7
1626.53
1624.35
1621.99
1619.55
1617.11
1614.33
1611.83
1609.17
1606.05
1602.9
1599.61
1596.53
1593.15
1589.74
1586.14
1582.66
1578.32
1574.64
1570.41
1566.04
1561.6
1557.29
1553.16
1548.6
1543.94
1539.1
1533.8
1527.95
1521.93
1515.93
1509.91
1504.35
1498.84
1493.46
1487.82
1481.67
1475.05
1468.08
1461.12
1453.87
1446.26
1438.69
1430.98
1423.04
1415.05
1406.85
1398.28
1389.25
1380.08
1370.89
1361.63
1352.24
1342.55
1332.45
1321.94
1311.76
1301.35
1290.93
1280.49
1270.19
1260.25
1250.53
1240.51
1230.38
1220.19
1211.7
1203.3
1195.3
1187.41
1180.77
1173.98
1168.4
1162.77
1158.96
1154.78
1151.41
1145.76
1141.7
1149.38
1149.97
1146.28
1148.08
1154.98
1160.98
1145.65
1130.31
1132.64
1138.37
1138.24
1128.96
1119.14
1126.14
1123.52
1123.01
1131.19
1115.61
1107.83
1125.35
1137.61
1137.54
1139.14
1153.05
1167.2
1177.45
1189.06
1204.96
1229.78
1254
1276.04
1295.65
1311.38
1323.51
1332.56
1345.88
1365.17
1378.78
1392.92
1404.79
1417.39
1426.35
1433.34
1447.36
1433.44
1413.28
1402.44
1382.31
1329.29
1300.19
1262.26
1235.29
1196.59
1148.16
1098.93
1047.9
992.919
942.196
881.938
821.417
750.703
722.769
663.177
598.611
541.143
511.896
767.433
768.083
768.718
769.346
769.984
770.639
771.309
771.991
772.685
773.392
774.114
774.849
775.599
776.364
777.146
777.948
778.769
779.611
780.475
781.363
782.274
783.21
784.172
785.163
786.182
787.234
788.316
789.434
790.584
791.772
792.994
794.257
795.555
796.894
798.27
799.689
801.145
802.646
804.182
805.767
807.386
809.052
810.747
812.483
814.264
816.083
817.951
819.879
821.854
823.876
825.952
828.072
830.24
832.477
834.773
837.054
839.428
841.912
844.286
846.78
849.326
851.777
854.702
857.361
859.777
862.035
863.756
866.939
872.231
876.073
877.992
881.322
885.303
887.495
890.953
896.241
901.43
907.071
912.549
915.88
919.976
925.615
930.412
934.306
938.277
943.681
949.372
955.066
961.06
967.011
973.151
978.895
984.909
990.845
997.004
1002.92
1008.91
1014.7
1020.37
1025.51
1031.49
1038.71
1046.56
1054.08
1060.2
1067.11
1073.75
1080.37
1086.74
1094.2
1101.79
1107.62
1113.44
1120.12
1128.24
1136.12
1143.06
1151.08
1158.79
1166.93
1174.82
1182.29
1188.62
1195.09
1202.22
1208.35
1215.41
1223.46
1230.3
1237.69
1243.76
1252.13
1258.76
1264.31
1266.56
1267.79
1280.75
1286.32
1284.66
1290.17
1311.22
1318.76
1313.93
1320.92
1338.03
1356.84
1366.86
1365.98
1372.66
1398.42
1418.21
1433.9
1442.69
1442.15
1454.24
1478.52
1501.34
1517.09
1528.52
1542.39
1558.96
1576.79
1591.64
1610.92
1633.34
1654.03
1675.37
1696.22
1715.34
1729.47
1742.07
1756.27
1768.98
1770.48
1765.3
1758.75
1749.88
1729.61
1713.69
1706.86
1686.29
1647.88
1613.09
1575.69
1526.3
1477.42
1428.91
1384.16
1329.75
1274.84
1213.53
1152.32
1087.7
1022.81
956.65
889.444
819.051
756.48
698.431
643.132
591.64
506.136
1576.39
1576.17
1576.17
1576.24
1576.32
1576.4
1576.49
1576.58
1576.68
1576.78
1576.89
1577
1577.12
1577.23
1577.34
1577.45
1577.56
1577.66
1577.76
1577.87
1577.97
1578.06
1578.15
1578.22
1578.29
1578.35
1578.4
1578.42
1578.45
1578.45
1578.45
1578.43
1578.41
1578.37
1578.31
1578.24
1578.15
1578.05
1577.96
1577.86
1577.77
1577.67
1577.57
1577.43
1577.25
1577.1
1577
1576.94
1576.86
1576.79
1576.59
1576.31
1576.1
1576.04
1575.75
1575.5
1575.48
1575.1
1574.71
1574.19
1573.7
1573.54
1573.32
1572.73
1572.27
1571.85
1571.69
1571.18
1570.56
1570.27
1569.59
1568.7
1567.78
1567.37
1566.43
1565.05
1564.09
1564.16
1563.2
1561.19
1559.63
1558.58
1557.29
1556.23
1556.54
1555.87
1553.44
1550.8
1549.67
1550.31
1548.92
1545.91
1544.22
1544.37
1542.76
1540.67
1538.92
1538.2
1539.44
1539.88
1538.42
1537.74
1541.19
1541.7
1540.77
1539.43
1538.9
1538.34
1538.39
1542.47
1545.16
1544.38
1543.34
1548.13
1553.12
1551.27
1550.44
1550.07
1550.69
1558
1566
1565.85
1562.21
1565.58
1565.74
1563.63
1570.37
1578.14
1582.24
1580.9
1580.92
1584.34
1585.89
1592.96
1600.72
1602.17
1599.06
1609.41
1618.3
1612.62
1615.98
1631.75
1648.14
1649.75
1648.88
1662.65
1678.14
1691.32
1702.82
1712.55
1722.18
1732.32
1746.28
1763.2
1775.52
1789.16
1806.29
1823.42
1840.27
1857.57
1876.33
1895.37
1916.13
1937.73
1959.68
1983.46
2006.11
2026.6
2043.95
2054.72
2060.25
2064
2065.66
2062.53
2050.21
2039.95
2054.25
2044.5
2013.8
1992.9
1964.92
1934.46
1893.48
1851.15
1801.09
1747.56
1689.11
1628.8
1566.89
1500.14
1431.25
1359.1
1285.16
1210.41
1132.41
1053.32
974.89
898.4
817.488
745.641
679.614
572.051
1289.75
1290.27
1290.82
1291.43
1292.06
1292.69
1293.33
1293.99
1294.66
1295.36
1296.07
1296.79
1297.53
1298.29
1299.06
1299.85
1300.66
1301.5
1302.35
1303.22
1304.12
1305.04
1305.98
1306.95
1307.95
1308.98
1310.04
1311.13
1312.25
1313.4
1314.59
1315.82
1317.08
1318.37
1319.7
1321.07
1322.47
1323.92
1325.4
1326.91
1328.46
1330.05
1331.67
1333.32
1335.01
1336.74
1338.52
1340.35
1342.21
1344.12
1346.06
1348.06
1350.1
1352.22
1354.37
1356.54
1358.8
1361.1
1363.39
1365.75
1368.18
1370.69
1373.26
1375.87
1378.53
1381.39
1384.23
1387.35
1390.21
1393.27
1396.28
1398.04
1400.86
1406.32
1410.38
1412.28
1415.63
1421.21
1424.81
1426.83
1431.02
1437.96
1445
1449.8
1451.98
1454.01
1457.02
1461.18
1468.58
1473.38
1475.68
1479.61
1484.87
1490.13
1495.57
1501.61
1506.87
1511.25
1519.36
1526.21
1529.11
1532.86
1538.95
1543.96
1549.17
1553.76
1559.29
1566.57
1570.75
1575.79
1584.63
1590.79
1592.95
1597.14
1607.94
1615.91
1617.63
1620.17
1628.26
1641.6
1657.31
1665.77
1667.97
1668.49
1671.22
1683.71
1701.74
1716.08
1721.36
1719.42
1721.89
1735.43
1753.39
1765.29
1766.75
1768.74
1783.76
1801.44
1806.18
1809.09
1825.25
1843.58
1853.18
1862.86
1880.24
1892.95
1904.06
1919.94
1935.02
1948.86
1965.03
1983.3
1999.35
2013.96
2032.13
2050.96
2069.45
2088.82
2108.17
2127.79
2147.82
2168.78
2190.05
2212.19
2235.2
2258.65
2281.34
2302.95
2322.54
2335.94
2344.19
2349.27
2352.99
2355.75
2344.17
2320.01
2314.68
2305.91
2269.88
2239.82
2198.79
2155.01
2105.87
2050.93
1991.77
1928.92
1862.16
1791.61
1717.09
1640.57
1560.1
1478.22
1394.05
1309.9
1224.49
1137.84
1051.97
966.874
881.922
803.268
722.532
582.839
1659.08
1659.1
1659.2
1659.47
1659.77
1660.04
1660.31
1660.59
1660.89
1661.2
1661.53
1661.85
1662.19
1662.52
1662.86
1663.21
1663.56
1663.92
1664.29
1664.66
1665.04
1665.43
1665.83
1666.24
1666.66
1667.09
1667.53
1667.98
1668.45
1668.92
1669.41
1669.92
1670.43
1670.96
1671.51
1672.07
1672.64
1673.23
1673.84
1674.46
1675.09
1675.75
1676.42
1677.11
1677.82
1678.54
1679.29
1680.06
1680.84
1681.65
1682.48
1683.33
1684.21
1685.11
1686.03
1686.98
1687.96
1688.96
1689.99
1691.06
1692.15
1693.28
1694.44
1695.63
1696.87
1698.14
1699.45
1700.8
1702.17
1703.68
1705.14
1706.74
1708.48
1710.2
1711.77
1713.62
1715.65
1717.6
1719.51
1721.75
1723.75
1725.18
1726.54
1728.26
1730.45
1732.93
1735.29
1737.74
1740.05
1741.88
1744.25
1747.13
1750.08
1753.02
1755.83
1758.73
1761.9
1765.21
1768.38
1771.15
1774.53
1778.43
1781.95
1785.39
1789.34
1793.52
1797.81
1801.42
1805.79
1810.54
1814.89
1818.84
1823.95
1829.52
1834.59
1838.83
1844.12
1850.75
1857.51
1863.99
1868.89
1873.28
1879.9
1887.26
1896.03
1904.87
1911.61
1916.34
1922.57
1932.42
1942.54
1951.94
1961.16
1967.74
1976.23
1989.03
1998.51
2006.33
2016.35
2029.85
2041.99
2052.39
2065.02
2078.87
2089.98
2103.56
2120.02
2134.53
2149.05
2165.56
2182.03
2197.47
2214.35
2232.91
2250.69
2268.85
2288.21
2307.98
2328.28
2349
2370.38
2392.3
2414.97
2438.24
2461.61
2485.61
2508.37
2529.18
2547.61
2559.74
2565
2565.56
2566.07
2562.79
2561.01
2552.95
2534.46
2513.75
2486.25
2451.45
2412.42
2367.23
2315.81
2259.35
2196.54
2128.93
2056.11
1979.52
1898.95
1814.6
1726.99
1635.92
1542.53
1447.48
1350.64
1253.08
1154.44
1054.43
955.815
867.426
775.906
618.042
1607.17
1607.76
1608.41
1609.17
1609.95
1610.73
1611.53
1612.35
1613.18
1614.04
1614.92
1615.82
1616.73
1617.65
1618.6
1619.56
1620.54
1621.53
1622.55
1623.59
1624.64
1625.72
1626.82
1627.95
1629.09
1630.26
1631.45
1632.67
1633.91
1635.18
1636.48
1637.8
1639.15
1640.52
1641.93
1643.36
1644.83
1646.32
1647.85
1649.41
1651
1652.62
1654.28
1655.97
1657.7
1659.46
1661.26
1663.1
1664.98
1666.9
1668.85
1670.85
1672.89
1674.97
1677.09
1679.26
1681.48
1683.73
1686.04
1688.4
1690.8
1693.25
1695.75
1698.31
1700.91
1703.57
1706.28
1709.05
1711.87
1714.76
1717.7
1720.7
1723.76
1726.89
1730.08
1733.33
1736.65
1740.05
1743.52
1747.03
1750.66
1754.42
1758.25
1762.22
1766.34
1770.51
1774.71
1779.08
1783.61
1788.2
1792.87
1797.71
1802.73
1807.8
1812.93
1818.23
1823.7
1829.17
1834.77
1840.52
1846.34
1852.3
1858.34
1864.38
1870.72
1877.23
1883.57
1890.19
1897.15
1903.98
1910.84
1918.18
1925.62
1932.87
1940.44
1948.46
1956.36
1964.16
1972.58
1980.97
1989.14
1998.31
2007.87
2016.74
2025.84
2035.63
2044.97
2054.78
2065.77
2076.54
2086.85
2097.25
2107.81
2119.06
2130.73
2141.49
2153.23
2166.29
2179.48
2191.74
2204.18
2218.44
2232.61
2246.17
2261.7
2277.44
2292.25
2308.45
2325.5
2342.12
2359.14
2377.49
2396.03
2414.51
2433.97
2454.08
2474.42
2495.44
2516.9
2538.87
2561.29
2584.36
2607.88
2631.77
2655.85
2680.14
2703.37
2725.15
2744.69
2758.65
2765.36
2766.38
2767.65
2762.43
2758.99
2749.56
2727.3
2703.29
2669.01
2631.91
2585.84
2535.4
2478.12
2415.09
2346.78
2272.88
2194.51
2110.92
2023.65
1932.63
1838.19
1740.87
1640.89
1539.78
1436.96
1333.42
1228.54
1121.13
1014.53
916.085
813.456
643.107
1820.06
1820.27
1820.56
1820.94
1821.35
1821.76
1822.17
1822.59
1823.04
1823.5
1823.98
1824.47
1824.98
1825.5
1826.03
1826.57
1827.12
1827.68
1828.25
1828.84
1829.44
1830.05
1830.68
1831.33
1831.99
1832.67
1833.37
1834.09
1834.82
1835.58
1836.36
1837.16
1837.98
1838.83
1839.7
1840.6
1841.52
1842.46
1843.44
1844.44
1845.47
1846.53
1847.62
1848.74
1849.89
1851.07
1852.29
1853.54
1854.83
1856.15
1857.52
1858.92
1860.35
1861.83
1863.36
1864.92
1866.53
1868.18
1869.88
1871.63
1873.42
1875.26
1877.16
1879.11
1881.11
1883.16
1885.28
1887.45
1889.68
1891.97
1894.32
1896.73
1899.21
1901.76
1904.37
1907.06
1909.81
1912.64
1915.53
1918.51
1921.55
1924.67
1927.87
1931.15
1934.51
1937.95
1941.5
1945.14
1948.87
1952.69
1956.62
1960.65
1964.78
1969.02
1973.37
1977.85
1982.44
1987.15
1992.01
1996.99
2002.1
2007.37
2012.75
2018.3
2024.03
2029.84
2035.85
2042.07
2048.39
2054.86
2061.56
2068.41
2075.38
2082.57
2089.98
2097.5
2105.16
2113.14
2121.31
2129.54
2138.1
2146.89
2155.59
2164.65
2174.2
2183.8
2193.65
2203.8
2214
2224.4
2235.16
2246.27
2257.77
2269.44
2281.2
2293.59
2306.18
2318.73
2331.4
2344.53
2358.6
2372.69
2386.81
2401.74
2416.68
2431.98
2448.31
2464.73
2481.19
2498.45
2516.38
2534.35
2552.82
2572.06
2591.71
2611.8
2632.57
2653.82
2675.67
2698.04
2721.01
2744.55
2768.55
2792.86
2817.19
2841.54
2864.75
2886.15
2904.9
2918.58
2924.79
2924.7
2923.57
2921.21
2917.69
2907.71
2886.01
2861.29
2828.81
2790.28
2745.51
2693.95
2636.08
2571.6
2500.71
2423.85
2341.13
2253.45
2160.64
2063.66
1962.56
1857.63
1750.1
1640.6
1530.02
1418.55
1305.65
1190.72
1078.71
973.004
855.662
671.563
1822.71
1823.29
1823.93
1824.65
1825.39
1826.15
1826.91
1827.7
1828.51
1829.35
1830.21
1831.09
1831.99
1832.91
1833.85
1834.8
1835.78
1836.77
1837.78
1838.81
1839.86
1840.94
1842.03
1843.16
1844.3
1845.48
1846.68
1847.91
1849.17
1850.45
1851.77
1853.12
1854.5
1855.91
1857.36
1858.84
1860.36
1861.91
1863.5
1865.13
1866.8
1868.51
1870.26
1872.05
1873.88
1875.76
1877.68
1879.65
1881.66
1883.73
1885.84
1888
1890.21
1892.48
1894.8
1897.17
1899.6
1902.09
1904.63
1907.24
1909.9
1912.63
1915.42
1918.28
1921.2
1924.19
1927.25
1930.38
1933.58
1936.85
1940.2
1943.63
1947.13
1950.72
1954.38
1958.13
1961.96
1965.88
1969.89
1973.99
1978.18
1982.46
1986.85
1991.33
1995.91
2000.6
2005.39
2010.3
2015.31
2020.43
2025.67
2031.02
2036.5
2042.09
2047.81
2053.66
2059.63
2065.74
2071.98
2078.36
2084.87
2091.52
2098.31
2105.25
2112.33
2119.56
2126.94
2134.47
2142.15
2149.99
2157.99
2166.15
2174.47
2182.97
2191.63
2200.47
2209.49
2218.71
2228.09
2237.66
2247.43
2257.38
2267.54
2277.9
2288.4
2299.09
2309.94
2320.96
2332.2
2343.68
2355.36
2367.24
2379.32
2391.6
2404.18
2416.96
2429.99
2443.4
2457.12
2471.22
2485.45
2499.98
2514.99
2530.2
2545.92
2562.13
2578.45
2595.22
2612.58
2630.28
2648.25
2666.86
2685.98
2705.54
2725.65
2746.37
2767.59
2789.42
2811.8
2834.78
2858.37
2882.52
2907.05
2931.85
2956.74
2981.44
3005.15
3027.16
3046.24
3060.77
3067.96
3068.24
3066.71
3063.29
3059.64
3047.72
3024.65
2997.47
2962.41
2921.67
2873.52
2819.09
2757.81
2690
2615.92
2535.5
2449.41
2357.56
2261.03
2159.85
2054.77
1945.67
1833.45
1719.2
1603.24
1486.41
1367.5
1246.67
1130.46
1022.31
894.555
698.391
1973.14
1973.5
1973.92
1974.42
1974.93
1975.45
1975.99
1976.54
1977.11
1977.7
1978.31
1978.94
1979.59
1980.25
1980.93
1981.62
1982.32
1983.03
1983.76
1984.51
1985.27
1986.04
1986.84
1987.65
1988.48
1989.34
1990.21
1991.11
1992.03
1992.97
1993.94
1994.93
1995.95
1997
1998.07
1999.18
2000.31
2001.48
2002.68
2003.91
2005.18
2006.48
2007.81
2009.19
2010.6
2012.06
2013.55
2015.09
2016.66
2018.29
2019.96
2021.67
2023.44
2025.25
2027.11
2029.03
2031
2033.03
2035.11
2037.26
2039.46
2041.72
2044.05
2046.44
2048.9
2051.42
2054.02
2056.69
2059.43
2062.25
2065.14
2068.12
2071.17
2074.31
2077.53
2080.84
2084.24
2087.73
2091.32
2095
2098.77
2102.65
2106.63
2110.72
2114.91
2119.21
2123.62
2128.15
2132.79
2137.55
2142.44
2147.45
2152.59
2157.86
2163.27
2168.81
2174.48
2180.3
2186.27
2192.38
2198.64
2205.06
2211.63
2218.36
2225.25
2232.31
2239.53
2246.92
2254.48
2262.22
2270.14
2278.23
2286.5
2294.95
2303.59
2312.41
2321.42
2330.61
2340
2349.59
2359.4
2369.42
2379.65
2390.08
2400.73
2411.6
2422.69
2434.01
2445.55
2457.3
2469.27
2481.47
2493.91
2506.59
2519.5
2532.66
2546.07
2559.7
2573.58
2587.7
2602.13
2616.91
2631.94
2647.34
2663.05
2679.05
2695.53
2712.36
2729.49
2747.01
2765.08
2783.55
2802.5
2821.99
2842.04
2862.63
2883.85
2905.64
2928.06
2951.11
2974.81
2999.03
3023.68
3048.6
3073.59
3098.29
3121.89
3143.59
3162.21
3176.61
3184.27
3184.67
3181.62
3178.62
3174.96
3163.47
3141.39
3114.78
3080.66
3039.93
2992.38
2937.46
2875.66
2806.5
2730.5
2647.67
2558.45
2463.21
2362.32
2256.56
2146.26
2031.71
1913.71
1793.24
1671.29
1548.2
1423.02
1295.27
1171.93
1058.97
926.781
722.755
1995.46
1996.07
1996.73
1997.45
1998.2
1998.95
1999.73
2000.53
2001.36
2002.21
2003.08
2003.97
2004.9
2005.84
2006.8
2007.78
2008.78
2009.8
2010.83
2011.89
2012.97
2014.08
2015.21
2016.36
2017.53
2018.74
2019.97
2021.23
2022.51
2023.83
2025.18
2026.56
2027.97
2029.42
2030.9
2032.42
2033.98
2035.57
2037.2
2038.88
2040.59
2042.35
2044.16
2046
2047.9
2049.84
2051.83
2053.87
2055.96
2058.1
2060.3
2062.55
2064.86
2067.22
2069.65
2072.13
2074.68
2077.29
2079.97
2082.71
2085.52
2088.4
2091.35
2094.37
2097.47
2100.65
2103.9
2107.23
2110.64
2114.14
2117.72
2121.38
2125.14
2128.98
2132.92
2136.95
2141.07
2145.3
2149.62
2154.05
2158.58
2163.22
2167.97
2172.82
2177.79
2182.88
2188.08
2193.4
2198.84
2204.41
2210.1
2215.92
2221.87
2227.96
2234.18
2240.54
2247.04
2253.68
2260.47
2267.4
2274.49
2281.72
2289.11
2296.66
2304.37
2312.23
2320.26
2328.46
2336.83
2345.36
2354.07
2362.96
2372.02
2381.27
2390.69
2400.28
2410.05
2420
2430.13
2440.43
2450.9
2461.56
2472.4
2483.43
2494.65
2506.05
2517.64
2529.42
2541.39
2553.56
2565.92
2578.48
2591.24
2604.21
2617.39
2630.79
2644.41
2658.27
2672.38
2686.75
2701.38
2716.26
2731.44
2746.92
2762.71
2778.87
2795.33
2812.11
2829.27
2846.86
2864.81
2883.26
2902.19
2921.67
2941.69
2962.33
2983.56
3005.44
3027.98
3051.22
3075.09
3099.5
3124.35
3149.5
3174.79
3199.63
3223.46
3245.34
3263.84
3278.39
3286.76
3287.8
3284
3280.87
3276.8
3264.33
3241.72
3213.43
3178.42
3136.25
3087.28
3030.93
2967.52
2896.79
2819.06
2734.28
2642.94
2545.19
2441.68
2332.75
2219.15
2100.93
1979.02
1854.62
1728.6
1601.45
1471.88
1339.26
1208.95
1087.57
955.711
740.703
2104.01
2104.47
2104.99
2105.57
2106.17
2106.78
2107.4
2108.05
2108.72
2109.41
2110.13
2110.86
2111.62
2112.4
2113.2
2114.01
2114.84
2115.69
2116.55
2117.43
2118.33
2119.25
2120.19
2121.15
2122.13
2123.13
2124.16
2125.22
2126.3
2127.41
2128.55
2129.71
2130.91
2132.13
2133.39
2134.69
2136.01
2137.37
2138.77
2140.21
2141.68
2143.2
2144.75
2146.35
2147.99
2149.68
2151.41
2153.19
2155.02
2156.89
2158.82
2160.81
2162.84
2164.94
2167.09
2169.3
2171.57
2173.9
2176.3
2178.76
2181.29
2183.89
2186.56
2189.3
2192.12
2195.02
2197.99
2201.05
2204.19
2207.41
2210.72
2214.12
2217.61
2221.19
2224.87
2228.65
2232.53
2236.51
2240.59
2244.78
2249.09
2253.5
2258.03
2262.68
2267.44
2272.33
2277.35
2282.49
2287.76
2293.16
2298.7
2304.38
2310.19
2316.15
2322.26
2328.51
2334.92
2341.48
2348.19
2355.06
2362.1
2369.29
2376.65
2384.18
2391.88
2399.75
2407.79
2416
2424.39
2432.96
2441.71
2450.63
2459.74
2469.04
2478.53
2488.21
2498.09
2508.15
2518.41
2528.86
2539.5
2550.34
2561.36
2572.57
2583.97
2595.56
2607.34
2619.31
2631.46
2643.8
2656.33
2669.05
2681.96
2695.06
2708.36
2721.85
2735.55
2749.45
2763.55
2777.88
2792.42
2807.22
2822.27
2837.58
2853.18
2869.08
2885.3
2901.83
2918.69
2935.89
2953.53
2971.6
2990.19
3009.3
3028.99
3049.27
3070.21
3091.81
3114.13
3137.14
3160.81
3185.06
3209.79
3234.86
3260.03
3284.66
3308.2
3329.65
3347.65
3361.89
3370.79
3372.49
3367.87
3365.82
3361.24
3348.24
3327.39
3299.62
3265.53
3223.83
3175.11
3118.59
3054.6
2982.82
2903.56
2816.86
2723.11
2622.61
2515.88
2403.55
2286.25
2164.24
2038.43
1910.02
1780.21
1649.05
1515.36
1379.29
1246.78
1120.36
978.549
761.22
2132.88
2133.51
2134.19
2134.92
2135.67
2136.44
2137.24
2138.05
2138.9
2139.76
2140.66
2141.58
2142.52
2143.49
2144.49
2145.5
2146.54
2147.59
2148.66
2149.76
2150.88
2152.02
2153.19
2154.39
2155.61
2156.85
2158.13
2159.44
2160.77
2162.14
2163.54
2164.97
2166.44
2167.95
2169.49
2171.07
2172.69
2174.35
2176.05
2177.8
2179.59
2181.42
2183.3
2185.23
2187.21
2189.23
2191.31
2193.44
2195.63
2197.87
2200.17
2202.53
2204.95
2207.43
2209.97
2212.58
2215.25
2217.99
2220.8
2223.69
2226.64
2229.67
2232.78
2235.96
2239.23
2242.58
2246.01
2249.53
2253.13
2256.82
2260.61
2264.49
2268.47
2272.54
2276.71
2280.99
2285.37
2289.86
2294.45
2299.16
2303.98
2308.91
2313.97
2319.14
2324.44
2329.86
2335.41
2341.09
2346.9
2352.84
2358.92
2365.14
2371.51
2378.01
2384.67
2391.47
2398.42
2405.53
2412.79
2420.21
2427.79
2435.54
2443.44
2451.52
2459.76
2468.17
2476.76
2485.52
2494.46
2503.57
2512.85
2522.31
2531.94
2541.74
2551.72
2561.87
2572.2
2582.7
2593.37
2604.23
2615.25
2626.45
2637.83
2649.37
2661.09
2672.98
2685.03
2697.26
2709.65
2722.2
2734.93
2747.81
2760.87
2774.09
2787.47
2801.03
2814.75
2828.66
2842.74
2857.02
2871.49
2886.18
2901.08
2916.23
2931.63
2947.31
2963.28
2979.53
2996.06
3012.97
3030.24
3047.97
3066.18
3084.95
3104.29
3124.26
3144.9
3166.25
3188.35
3211.17
3234.67
3258.79
3283.43
3308.48
3333.56
3357.98
3381.45
3402.63
3420.14
3434.23
3443.38
3445.54
3440.7
3440.21
3435.33
3419.67
3399.61
3371.28
3336.86
3294.72
3245.5
3188.46
3123.83
3051.29
2971.06
2883.12
2787.85
2685.5
2576.62
2461.78
2341.68
2216.59
2087.28
1955.15
1821.24
1685.7
1546.79
1406.17
1271.93
1146.55
995.923
775.698
2213.09
2213.62
2214.21
2214.84
2215.5
2216.18
2216.88
2217.6
2218.34
2219.11
2219.9
2220.72
2221.57
2222.44
2223.33
2224.25
2225.18
2226.13
2227.1
2228.09
2229.1
2230.13
2231.19
2232.27
2233.38
2234.51
2235.67
2236.86
2238.08
2239.32
2240.6
2241.91
2243.26
2244.64
2246.05
2247.5
2248.99
2250.52
2252.08
2253.69
2255.34
2257.04
2258.78
2260.56
2262.39
2264.28
2266.21
2268.19
2270.23
2272.32
2274.47
2276.68
2278.95
2281.27
2283.66
2286.12
2288.64
2291.22
2293.88
2296.61
2299.41
2302.29
2305.24
2308.28
2311.39
2314.59
2317.88
2321.25
2324.71
2328.26
2331.91
2335.66
2339.5
2343.44
2347.49
2351.65
2355.91
2360.28
2364.77
2369.37
2374.09
2378.93
2383.9
2388.99
2394.21
2399.57
2405.05
2410.68
2416.44
2422.35
2428.4
2434.59
2440.94
2447.44
2454.09
2460.9
2467.87
2475
2482.29
2489.75
2497.38
2505.18
2513.14
2521.28
2529.6
2538.09
2546.76
2555.6
2564.63
2573.84
2583.24
2592.83
2602.6
2612.55
2622.69
2633
2643.5
2654.18
2665.04
2676.07
2687.28
2698.65
2710.2
2721.92
2733.79
2745.83
2758.03
2770.38
2782.88
2795.54
2808.34
2821.28
2834.37
2847.59
2860.96
2874.47
2888.11
2901.91
2915.85
2929.94
2944.19
2958.62
2973.23
2988.05
3003.08
3018.36
3033.9
3049.69
3065.76
3082.11
3098.86
3116.02
3133.69
3151.88
3170.67
3190.09
3210.22
3231.08
3252.7
3275.06
3298.14
3321.88
3346.22
3370.96
3395.61
3419.64
3442.54
3462.96
3480.05
3493.89
3503.35
3506.18
3501.63
3500.42
3496.24
3481.38
3461.68
3434.28
3400.34
3358.71
3309.63
3252.52
3187.47
3114.22
3032.93
2943.64
2846.66
2742.31
2631.11
2513.61
2390.62
2262.42
2129.9
1994.31
1856.75
1717.79
1576.41
1433.8
1295.64
1165.83
1016.7
786.256
2242.1
2242.75
2243.44
2244.19
2244.96
2245.75
2246.56
2247.4
2248.27
2249.16
2250.08
2251.03
2252.01
2253.02
2254.05
2255.11
2256.19
2257.29
2258.41
2259.55
2260.72
2261.92
2263.14
2264.39
2265.66
2266.97
2268.31
2269.67
2271.07
2272.51
2273.98
2275.48
2277.02
2278.6
2280.22
2281.88
2283.58
2285.32
2287.11
2288.94
2290.81
2292.74
2294.71
2296.74
2298.81
2300.94
2303.13
2305.37
2307.66
2310.02
2312.43
2314.91
2317.45
2320.06
2322.73
2325.47
2328.28
2331.17
2334.12
2337.16
2340.27
2343.45
2346.73
2350.08
2353.52
2357.04
2360.66
2364.37
2368.17
2372.06
2376.05
2380.15
2384.34
2388.64
2393.05
2397.57
2402.2
2406.94
2411.8
2416.78
2421.88
2427.1
2432.45
2437.93
2443.54
2449.28
2455.16
2461.18
2467.34
2473.64
2480.09
2486.69
2493.44
2500.34
2507.4
2514.62
2522
2529.54
2537.25
2545.12
2553.17
2561.38
2569.77
2578.33
2587.06
2595.97
2605.05
2614.31
2623.74
2633.35
2643.13
2653.08
2663.21
2673.51
2683.99
2694.64
2705.45
2716.44
2727.6
2738.92
2750.4
2762.03
2773.83
2785.77
2797.87
2810.11
2822.49
2835
2847.64
2860.41
2873.31
2886.32
2899.44
2912.68
2926.03
2939.48
2953.04
2966.71
2980.5
2994.4
3008.42
3022.59
3036.9
3051.37
3066.03
3080.9
3095.99
3111.33
3126.88
3142.71
3158.88
3175.49
3192.55
3210.17
3228.37
3247.24
3266.83
3287.16
3308.26
3330.14
3352.76
3376.14
3400.14
3424.44
3448.64
3472.32
3494.66
3514.35
3531
3544.7
3554.22
3557.62
3553.56
3552.22
3547.76
3533.06
3513.41
3486.1
3452.23
3410.67
3361.61
3304.45
3239.21
3165.57
3083.64
2993.41
2895.16
2789.18
2676
2556.27
2430.78
2300.03
2164.83
2026.67
1886.76
1746.4
1604.9
1461.03
1319.01
1182.47
1032.26
798.866
2302.74
2303.33
2303.97
2304.66
2305.37
2306.1
2306.85
2307.63
2308.43
2309.27
2310.12
2311.01
2311.92
2312.87
2313.84
2314.84
2315.85
2316.89
2317.95
2319.04
2320.14
2321.27
2322.43
2323.61
2324.82
2326.06
2327.33
2328.62
2329.95
2331.32
2332.71
2334.15
2335.61
2337.12
2338.66
2340.25
2341.87
2343.54
2345.25
2347
2348.8
2350.65
2352.54
2354.49
2356.49
2358.54
2360.64
2362.8
2365.02
2367.29
2369.63
2372.02
2374.49
2377.01
2379.61
2382.27
2385
2387.81
2390.69
2393.65
2396.68
2399.8
2403
2406.28
2409.65
2413.11
2416.66
2420.31
2424.05
2427.89
2431.82
2435.87
2440.02
2444.27
2448.64
2453.12
2457.71
2462.43
2467.26
2472.22
2477.3
2482.52
2487.86
2493.34
2498.96
2504.71
2510.61
2516.65
2522.84
2529.18
2535.67
2542.32
2549.12
2556.09
2563.21
2570.51
2577.96
2585.59
2593.38
2601.35
2609.49
2617.81
2626.31
2634.98
2643.84
2652.89
2662.11
2671.52
2681.11
2690.89
2700.85
2710.98
2721.3
2731.8
2742.47
2753.31
2764.33
2775.51
2786.86
2798.37
2810.03
2821.85
2833.82
2845.92
2858.16
2870.53
2883.03
2895.64
2908.36
2921.18
2934.11
2947.12
2960.22
2973.4
2986.66
2999.99
3013.4
3026.87
3040.42
3054.05
3067.76
3081.57
3095.49
3109.53
3123.71
3138.05
3152.59
3167.32
3182.26
3197.42
3212.93
3228.8
3245.15
3262.02
3279.52
3297.67
3316.53
3336.16
3356.58
3377.8
3399.83
3422.66
3446.03
3469.68
3493.3
3516.34
3537.79
3556.61
3572.94
3586.47
3596.11
3600.1
3596.64
3594.98
3590.71
3576.81
3557.69
3531.07
3497.66
3456.51
3407.62
3350.46
3284.94
3210.8
3128.06
3036.75
2937.11
2829.47
2714.39
2592.54
2464.8
2331.53
2193.67
2052.91
1911.2
1769.65
1625.27
1477.23
1334.13
1197.26
1042.66
809.034
2329.14
2329.81
2330.53
2331.29
2332.08
2332.89
2333.73
2334.59
2335.49
2336.41
2337.36
2338.34
2339.35
2340.39
2341.46
2342.56
2343.68
2344.83
2346
2347.19
2348.41
2349.66
2350.93
2352.23
2353.56
2354.93
2356.32
2357.75
2359.21
2360.71
2362.24
2363.81
2365.43
2367.08
2368.77
2370.5
2372.28
2374.1
2375.97
2377.89
2379.86
2381.87
2383.94
2386.06
2388.24
2390.47
2392.76
2395.11
2397.51
2399.98
2402.52
2405.12
2407.78
2410.52
2413.32
2416.2
2419.15
2422.18
2425.29
2428.47
2431.74
2435.09
2438.53
2442.06
2445.67
2449.38
2453.18
2457.09
2461.09
2465.19
2469.39
2473.7
2478.12
2482.66
2487.3
2492.06
2496.95
2501.95
2507.08
2512.33
2517.71
2523.23
2528.88
2534.66
2540.59
2546.66
2552.88
2559.24
2565.75
2572.42
2579.24
2586.22
2593.36
2600.66
2608.13
2615.77
2623.57
2631.55
2639.7
2648.02
2656.52
2665.19
2674.04
2683.07
2692.27
2701.65
2711.21
2720.94
2730.86
2740.95
2751.22
2761.67
2772.29
2783.08
2794.05
2805.18
2816.47
2827.92
2839.53
2851.29
2863.2
2875.24
2887.42
2899.72
2912.14
2924.68
2937.31
2950.05
2962.87
2975.76
2988.73
3001.76
3014.85
3027.98
3041.16
3054.38
3067.63
3080.91
3094.23
3107.59
3120.99
3134.44
3147.96
3161.55
3175.24
3189.06
3203.02
3217.16
3231.45
3245.96
3260.73
3275.88
3291.46
3307.59
3324.32
3341.71
3359.81
3378.69
3398.37
3418.89
3440.27
3462.39
3485.03
3508.11
3531.1
3553.31
3573.81
3591.95
3607.94
3621.3
3631.01
3635.47
3632.58
3630.75
3626.46
3613.07
3594.2
3567.98
3534.89
3494.06
3445.4
3388.36
3322.8
3248.41
3165.18
3073.1
2972.42
2863.47
2746.79
2623.06
2493.08
2357.38
2217.06
2074.55
1931.62
1787.23
1637.84
1487.9
1344.84
1210.29
1053.19
818.047
2375.88
2376.51
2377.19
2377.91
2378.65
2379.42
2380.21
2381.04
2381.89
2382.77
2383.67
2384.61
2385.58
2386.58
2387.61
2388.67
2389.76
2390.86
2392
2393.15
2394.33
2395.54
2396.77
2398.03
2399.33
2400.65
2402
2403.39
2404.81
2406.27
2407.76
2409.29
2410.86
2412.47
2414.12
2415.81
2417.54
2419.32
2421.15
2423.02
2424.95
2426.92
2428.95
2431.02
2433.16
2435.35
2437.59
2439.9
2442.27
2444.7
2447.19
2449.75
2452.38
2455.08
2457.84
2460.69
2463.6
2466.6
2469.67
2472.83
2476.07
2479.39
2482.81
2486.31
2489.91
2493.6
2497.38
2501.27
2505.26
2509.35
2513.55
2517.86