/*--------------------------------*- C++ -*----------------------------------*\
  =========                 |
  \\      /  F ield         | OpenFOAM: The Open Source CFD Toolbox
   \\    /   O peration     | Website:  https://openfoam.org
    \\  /    A nd           | Version:  7
     \\/     M anipulation  |
\*---------------------------------------------------------------------------*/
FoamFile
{
    version     2.0;
    format      ascii;
    class       volVectorField;
    location    "0.9975";
    object      U;
}
// * * * * * * * * * * * * * * * * * * * * * * * * * * * * * * * * * * * * * //

dimensions      [0 1 -1 0 0 0 0];

internalField   nonuniform List<vector> 
76362
(
(64.0711 -43.556 -7.48143e-17)
(64.0926 -43.5671 3.72823e-17)
(64.1118 -43.579 0)
(64.13 -43.5914 -3.95744e-17)
(64.1486 -43.6041 4.04289e-17)
(64.1677 -43.6172 0)
(64.1872 -43.6308 0)
(64.207 -43.6447 -4.33359e-17)
(64.2271 -43.6591 5.54303e-21)
(64.2474 -43.6739 4.53371e-17)
(64.2681 -43.6892 0)
(64.2892 -43.7049 -4.6155e-17)
(64.3106 -43.7212 4.6192e-17)
(64.3325 -43.7379 0)
(64.3549 -43.7551 -4.61586e-17)
(64.3777 -43.7728 4.60501e-17)
(64.401 -43.7911 0)
(64.4248 -43.8099 0)
(64.449 -43.8293 0)
(64.4737 -43.8493 -7.78754e-26)
(64.4989 -43.8699 -7.81245e-26)
(64.5246 -43.8912 0)
(64.5509 -43.9132 7.81183e-26)
(64.5776 -43.9358 7.77863e-26)
(64.6049 -43.9592 1.56202e-25)
(64.6326 -43.9833 0)
(64.661 -44.0083 0)
(64.6899 -44.034 0)
(64.7194 -44.0607 0)
(64.7494 -44.0882 0)
(64.78 -44.1167 1.55937e-25)
(64.8111 -44.146 1.55179e-25)
(64.8429 -44.1765 1.55703e-25)
(64.8753 -44.2079 0)
(64.9082 -44.2405 -4.5436e-17)
(64.9417 -44.2742 4.55577e-17)
(64.9758 -44.3089 4.52876e-17)
(65.0106 -44.345 -4.54679e-17)
(65.0459 -44.3822 -4.51709e-17)
(65.0819 -44.4209 4.53603e-17)
(65.1184 -44.4607 -4.50558e-17)
(65.1556 -44.5021 3.31376e-20)
(65.1934 -44.5447 4.49732e-17)
(65.2318 -44.589 0)
(65.2708 -44.6348 0)
(65.3104 -44.6822 4.47806e-17)
(65.3507 -44.7314 -8.97972e-17)
(65.3915 -44.7822 8.91997e-17)
(65.433 -44.835 -4.47884e-17)
(65.475 -44.8895 3.06583e-25)
(65.5177 -44.9463 -3.08129e-25)
(65.5609 -45.0048 -4.42285e-17)
(65.6048 -45.0658 4.44701e-17)
(65.6491 -45.1288 6.10505e-25)
(65.694 -45.1945 -6.1359e-25)
(65.7395 -45.2621 0)
(65.7854 -45.333 -6.11602e-25)
(65.832 -45.4056 0)
(65.8786 -45.4819 6.08921e-25)
(65.9251 -45.5614 -6.08286e-25)
(65.9743 -45.6412 0)
(66.0208 -45.7282 -4.31815e-17)
(66.0695 -45.8161 4.36781e-17)
(66.1187 -45.9069 0)
(66.1666 -46.0047 -4.32938e-17)
(66.2177 -46.1001 4.2706e-17)
(66.2695 -46.2001 0)
(66.3217 -46.3051 0)
(66.3705 -46.4155 -1.19518e-24)
(66.4222 -46.5261 0)
(66.4743 -46.6415 1.18381e-24)
(66.5273 -46.7613 0)
(66.5756 -46.8884 -1.1945e-24)
(66.6299 -47.011 4.12621e-17)
(66.6808 -47.1483 -4.15458e-17)
(66.7319 -47.2829 1.19058e-24)
(66.7823 -47.429 0)
(66.833 -47.5737 0)
(66.8816 -47.7277 0)
(66.9273 -47.8874 0)
(66.9764 -48.0464 0)
(67.0273 -48.2137 -1.1443e-24)
(67.0756 -48.3905 -3.98368e-17)
(67.1205 -48.5715 4.01719e-17)
(67.1652 -48.7614 -3.89975e-17)
(67.2092 -48.9569 1.93191e-19)
(67.252 -49.156 3.96367e-17)
(67.2926 -49.3579 0)
(67.3296 -49.5713 -3.8387e-17)
(67.363 -49.795 2.09804e-19)
(67.3938 -50.0181 3.79683e-17)
(67.4251 -50.2504 0)
(67.4557 -50.4936 -3.7349e-17)
(67.482 -50.7465 3.73089e-17)
(67.5038 -51.0086 0)
(67.5217 -51.28 0)
(67.5361 -51.5601 0)
(67.5472 -51.8493 4.32547e-24)
(67.554 -52.1478 0)
(67.5558 -52.4543 0)
(67.5523 -52.7706 0)
(67.5433 -53.0954 4.23133e-24)
(67.5283 -53.4313 0)
(67.5079 -53.7755 3.38905e-17)
(67.481 -54.1342 -6.75535e-17)
(67.4483 -54.5035 6.68557e-17)
(67.4067 -54.8874 -3.32422e-17)
(67.3588 -55.2817 3.25453e-17)
(67.3002 -55.6908 -3.50113e-19)
(67.2362 -56.1098 -3.21583e-17)
(67.1596 -56.5456 3.14179e-17)
(67.0768 -56.9901 -3.14057e-17)
(66.978 -57.4527 0)
(66.8732 -57.9208 3.02382e-17)
(66.7503 -58.4109 -3.02353e-17)
(66.6224 -58.9065 0)
(66.4713 -59.4275 2.90086e-17)
(66.3163 -59.9506 -5.75963e-17)
(66.134 -60.5028 2.85941e-17)
(65.9508 -61.0544 -2.77256e-17)
(65.7345 -61.6405 2.77387e-17)
(65.5195 -62.2216 0)
(65.2637 -62.8416 -2.6391e-17)
(65.0098 -63.4523 2.64645e-17)
(64.7136 -64.1057 -2.54219e-17)
(64.4199 -64.7526 2.55194e-17)
(64.0805 -65.4452 0)
(63.739 -66.1302 2.40576e-17)
(63.3537 -66.856 -2.40594e-17)
(62.9593 -67.5767 0)
(62.5248 -68.3331 0)
(62.0684 -69.0905 0)
(61.5803 -69.8715 -1.35634e-23)
(61.0592 -70.6602 -1.34666e-23)
(60.5134 -71.4667 -2.03661e-17)
(59.9288 -72.2776 6.34059e-19)
(59.3349 -73.087 6.54905e-19)
(58.6609 -73.9217 1.92961e-17)
(58.0104 -74.7193 -1.26439e-23)
(57.2338 -75.5799 -1.26956e-23)
(56.5604 -76.3594 -1.6526e-17)
(55.5395 -77.3321 3.41902e-17)
(54.8532 -78.0654 -7.2023e-19)
(53.5778 -79.1 -1.68105e-17)
(53.0135 -79.6698 0)
(51.1681 -81.0032 2.00111e-17)
(50.191 -81.5455 -1.2313e-17)
(48.9071 -82.3147 1.09877e-17)
(47.2269 -83.1148 -1.62371e-17)
(46.0116 -83.6547 2.10835e-23)
(44.3181 -84.3843 0)
(42.7398 -85.0009 1.02734e-17)
(41.0431 -85.5748 -1.23565e-17)
(39.2039 -86.1752 -1.0261e-17)
(37.4504 -86.7159 1.11413e-17)
(35.3703 -87.3367 0)
(33.4071 -87.8448 9.79789e-18)
(31.1785 -88.3676 -6.16778e-19)
(29.0234 -88.8431 -1.001e-17)
(26.4676 -89.3403 9.61224e-18)
(24.1081 -89.6929 -9.33751e-18)
(21.4617 -90.0112 0)
(18.6783 -90.3644 9.59271e-18)
(15.6549 -90.6447 -2.11423e-17)
(12.4696 -91.0342 2.22385e-17)
(8.9236 -91.0577 -2.18726e-17)
(5.05899 -90.7022 -8.20897e-19)
(0.887768 -89.7654 1.10693e-17)
(-3.53455 -88.2019 -1.03894e-17)
(-7.55389 -87.3765 1.10389e-17)
(-13.2876 -86.7994 -1.27567e-17)
(-18.5351 -86.6651 1.11094e-17)
(-24.5795 -86.5005 -1.32518e-17)
(-30.8332 -86.2253 2.53139e-17)
(-37.5018 -85.8143 -1.21802e-17)
(-44.3842 -85.2015 0)
(-51.3639 -84.4322 1.02619e-22)
(-58.7451 -83.276 0)
(-65.8484 -81.8648 9.67656e-23)
(-72.948 -80.1436 1.35752e-17)
(-79.6197 -78.3518 4.23793e-19)
(-86.3978 -76.1682 -1.21824e-17)
(-92.4338 -73.8655 -6.60883e-18)
(-98.6127 -71.2619 5.67809e-18)
(-103.557 -69.0068 -6.28819e-18)
(-109.013 -66.0836 7.23597e-20)
(-112.926 -63.6061 6.19475e-18)
(-117.738 -60.3197 0)
(-120.714 -58.0627 5.81905e-18)
(-124.586 -54.9992 -4.10159e-18)
(-127.245 -52.5176 0)
(-129.63 -49.7228 1.02125e-22)
(-131.547 -47.6907 1.06185e-22)
(-133.026 -44.8191 -9.98773e-23)
(-134.651 -43.2983 -1.61405e-18)
(-135.363 -40.1203 1.28977e-18)
(-136.177 -39.2929 0)
(-137.118 -35.6378 5.49583e-23)
(-136.503 -34.8387 0)
(-136.751 -33.2156 -5.54225e-19)
(-137.22 -31.4868 9.78891e-19)
(-135.281 -27.8508 0)
(70.8878 -23.0183 -2.57318e-18)
(70.8632 -23.0417 2.58783e-18)
(70.8391 -23.0666 5.32462e-26)
(70.8161 -23.092 3.5446e-26)
(70.7927 -23.1181 -2.84932e-18)
(70.7687 -23.1447 2.84135e-18)
(70.7441 -23.172 -5.5462e-26)
(70.7192 -23.1999 -5.55028e-26)
(70.6938 -23.2285 2.80459e-18)
(70.668 -23.2578 -5.60029e-18)
(70.6418 -23.2878 2.7957e-18)
(70.6151 -23.3185 7.24414e-26)
(70.5879 -23.3499 2.76145e-18)
(70.5601 -23.3821 -2.76298e-18)
(70.5319 -23.4151 2.73818e-18)
(70.5032 -23.4488 -2.7397e-18)
(70.4739 -23.4834 -1.11728e-25)
(70.4441 -23.5189 0)
(70.4138 -23.5552 1.11887e-25)
(70.383 -23.5923 7.28642e-26)
(70.3516 -23.6304 2.66009e-18)
(70.3197 -23.6694 -5.3073e-18)
(70.2872 -23.7094 2.64721e-18)
(70.2542 -23.7503 2.61562e-18)
(70.2206 -23.7923 -5.21701e-18)
(70.1864 -23.8352 1.77067e-20)
(70.1517 -23.8793 2.58517e-18)
(70.1164 -23.9244 2.25224e-25)
(70.0805 -23.9705 0)
(70.0441 -24.0179 0)
(70.007 -24.0664 2.49479e-18)
(69.9694 -24.1161 -2.49625e-18)
(69.9312 -24.167 -1.47035e-25)
(69.8924 -24.2192 0)
(69.853 -24.2727 2.41325e-18)
(69.8131 -24.3275 -2.41469e-18)
(69.7725 -24.3837 0)
(69.7313 -24.4414 0)
(69.6896 -24.5005 2.32111e-18)
(69.6472 -24.561 -4.61877e-18)
(69.6043 -24.6231 2.29765e-18)
(69.5607 -24.6868 0)
(69.5166 -24.7521 -2.21695e-18)
(69.4719 -24.819 2.21832e-18)
(69.4265 -24.8877 -4.5608e-25)
(69.3806 -24.9581 2.13002e-18)
(69.3342 -25.0302 -2.13134e-18)
(69.2871 -25.1042 0)
(69.2395 -25.1801 -2.03472e-18)
(69.1912 -25.2579 2.03599e-18)
(69.1424 -25.3376 2.9702e-25)
(69.0931 -25.4194 1.93027e-18)
(69.0431 -25.5032 -1.93147e-18)
(68.993 -25.5889 -1.85516e-18)
(68.9412 -25.678 1.85631e-18)
(68.891 -25.7657 0)
(68.837 -25.8643 5.99687e-25)
(68.7869 -25.9502 9.1349e-25)
(68.732 -26.0603 -6.34832e-25)
(68.679 -26.1602 5.71876e-25)
(68.631 -26.2392 -1.52264e-18)
(68.5647 -26.3829 1.80802e-18)
(68.5267 -26.4505 5.22559e-25)
(68.4519 -26.6254 0)
(68.4058 -26.7445 7.37916e-25)
(68.361 -26.8323 -1.02165e-18)
(68.2841 -26.9746 1.40475e-18)
(68.2433 -27.082 0)
(68.1653 -27.2795 1.59057e-24)
(68.1257 -27.3637 8.46196e-19)
(68.0468 -27.5212 -7.61773e-20)
(68.0063 -27.64 -3.52485e-20)
(67.9258 -27.8491 -1.32978e-18)
(67.8966 -27.8952 8.0092e-25)
(67.7925 -28.1413 -1.05765e-18)
(67.7554 -28.2423 6.20802e-19)
(67.6974 -28.3977 -1.48062e-24)
(67.618 -28.5964 8.26471e-19)
(67.5651 -28.7476 -4.07081e-19)
(67.4833 -29.0092 0)
(67.4234 -29.1452 3.13887e-19)
(67.3599 -29.2839 -3.20543e-19)
(67.2933 -29.4583 -1.6422e-24)
(67.2395 -29.6458 1.14813e-24)
(67.1741 -29.8905 2.30402e-24)
(67.1081 -30.1338 -8.72632e-20)
(67.0396 -30.365 8.72991e-20)
(66.9733 -30.5753 0)
(66.8914 -30.8412 -8.20191e-24)
(66.8341 -31.0349 0)
(66.7617 -31.2889 0)
(66.6979 -31.4782 -5.93466e-19)
(66.6241 -31.6959 5.6379e-19)
(66.5464 -31.956 0)
(66.468 -32.2447 3.70154e-24)
(66.3914 -32.5348 0)
(66.3121 -32.833 3.78418e-24)
(66.2326 -33.1304 -1.17283e-23)
(66.1505 -33.4401 -7.17526e-24)
(66.065 -33.7652 -7.51713e-24)
(65.9791 -34.0875 -1.52168e-18)
(65.8871 -34.4306 1.62368e-18)
(65.7959 -34.7691 0)
(65.6977 -35.1359 0)
(65.6024 -35.4906 -1.94755e-18)
(65.4991 -35.8804 4.31544e-18)
(65.393 -36.2765 1.29744e-19)
(65.2828 -36.6856 1.3286e-19)
(65.1631 -37.1171 -2.49778e-18)
(65.0433 -37.5464 7.09874e-24)
(64.9117 -38.0066 -7.20736e-24)
(64.7804 -38.4708 -8.30017e-24)
(64.6347 -38.9615 3.17947e-18)
(64.4851 -39.4557 -3.28581e-18)
(64.323 -39.9598 3.39239e-18)
(64.1555 -40.4901 -3.56123e-18)
(63.9716 -41.0438 3.78243e-18)
(63.7857 -41.6089 -3.95219e-18)
(63.5805 -42.1942 7.79553e-24)
(63.3753 -42.7966 0)
(63.1445 -43.4359 0)
(62.9232 -44.0739 0)
(62.6557 -44.7753 5.04429e-18)
(62.4107 -45.4406 -1.04242e-17)
(62.1035 -46.1905 5.33775e-18)
(61.8355 -46.8924 0)
(61.4838 -47.7211 2.93428e-23)
(61.1844 -48.477 2.85243e-23)
(60.7851 -49.3601 0)
(60.4479 -50.159 6.68241e-18)
(59.9913 -51.0977 2.67068e-19)
(59.6044 -51.9452 -1.42939e-17)
(59.0841 -52.9418 7.53005e-18)
(58.6499 -53.8317 1.40365e-23)
(58.0769 -54.8918 -8.19393e-18)
(57.5847 -55.8527 8.05007e-18)
(56.9479 -56.9028 1.76361e-23)
(56.3543 -57.9208 0)
(55.5232 -59.1507 1.34366e-23)
(55.0332 -59.9407 -1.06371e-17)
(54.1216 -60.9792 2.24565e-17)
(53.4506 -61.8023 -2.27248e-17)
(52.3792 -62.9598 2.40065e-17)
(51.7194 -63.7654 -1.19599e-17)
(50.4249 -64.9417 8.39278e-23)
(49.6087 -65.7446 1.26877e-17)
(48.1952 -66.8645 -1.46864e-17)
(47.0964 -67.7221 -2.71677e-23)
(45.5478 -68.8287 0)
(44.2718 -69.6959 5.14336e-23)
(42.6968 -70.7494 0)
(41.0359 -71.7744 -8.59951e-23)
(39.5982 -72.6733 1.82159e-17)
(37.6738 -73.7722 3.22053e-19)
(36.0758 -74.6497 -1.88183e-17)
(33.9337 -75.6992 -1.08607e-22)
(32.1734 -76.5214 -1.95182e-17)
(29.8842 -77.5061 4.23189e-17)
(27.871 -78.3123 2.148e-19)
(25.3528 -79.2329 -2.60632e-17)
(23.0006 -79.9383 2.37565e-22)
(20.6327 -80.6491 0)
(17.9727 -81.1723 -2.32007e-22)
(15.3712 -81.8358 -2.50568e-17)
(12.5785 -82.0876 2.38846e-17)
(9.72265 -82.5011 0)
(6.71628 -82.2203 3.0844e-17)
(3.77659 -80.727 -5.29022e-17)
(0.62869 -79.255 3.01208e-17)
(-2.79212 -77.124 2.70963e-17)
(-5.97926 -75.7311 1.01789e-18)
(-9.46728 -74.6149 -2.99836e-17)
(-13.1696 -73.2925 -1.81665e-22)
(-16.9105 -71.7615 2.80478e-17)
(-20.6473 -70.0151 -5.28792e-17)
(-24.2582 -68.1549 -3.89545e-19)
(-27.4416 -66.3012 2.66833e-17)
(-31.2022 -63.9162 0)
(-34.3495 -61.6196 2.35397e-22)
(-37.5337 -59.1447 -1.00179e-17)
(-39.9332 -57.0595 2.57792e-17)
(-43.3255 -54.0781 -1.65996e-17)
(-45.8027 -51.6317 1.03211e-17)
(-48.657 -48.7436 -7.50374e-18)
(-50.3693 -46.9377 8.55011e-18)
(-52.5911 -44.5095 0)
(-54.149 -42.5931 0)
(-56.8383 -39.0139 0)
(-58.2162 -37.3816 7.26518e-18)
(-59.9907 -35.3581 -7.26588e-18)
(-61.5668 -33.3907 0)
(-63.0273 -31.5367 -2.21122e-22)
(-64.3099 -30.0191 6.04992e-18)
(-65.7044 -28.1073 -2.73856e-18)
(-66.8062 -27.2566 -2.13952e-19)
(-68.1333 -25.5184 -4.06171e-18)
(-68.8089 -25.015 3.02361e-18)
(-69.9061 -22.3231 9.82153e-19)
(-70.5756 -22.3386 -9.49076e-20)
(-71.5209 -21.7705 -7.04801e-19)
(-72.0489 -21.296 -1.03865e-21)
(-72.681 -19.1577 2.84593e-22)
(67.4356 -36.7133 -6.59985e-26)
(67.4449 -36.7223 0)
(67.4517 -36.7329 3.20774e-17)
(67.4569 -36.7439 -4.70786e-21)
(67.4622 -36.7552 -6.67909e-17)
(67.4677 -36.7666 5.53236e-21)
(67.4734 -36.7784 3.51156e-17)
(67.4791 -36.7905 -3.55779e-17)
(67.4847 -36.8029 7.11571e-17)
(67.4905 -36.8157 -3.55788e-17)
(67.4963 -36.8289 0)
(67.5022 -36.8424 3.55635e-17)
(67.5081 -36.8564 -3.55661e-17)
(67.514 -36.8708 3.16741e-25)
(67.5201 -36.8856 1.24738e-25)
(67.5261 -36.9008 0)
(67.5323 -36.9164 1.24788e-25)
(67.5384 -36.9325 0)
(67.5446 -36.9491 -5.09304e-25)
(67.5509 -36.9661 0)
(67.5572 -36.9836 0)
(67.5635 -37.0017 0)
(67.5698 -37.0202 1.24909e-25)
(67.5761 -37.0393 -2.4985e-25)
(67.5825 -37.0589 -3.84889e-25)
(67.5889 -37.079 -3.84953e-25)
(67.5952 -37.0998 -2.49937e-25)
(67.6016 -37.1211 -2.49962e-25)
(67.6079 -37.1431 0)
(67.6142 -37.1656 0)
(67.6204 -37.1889 0)
(67.6267 -37.2128 -2.50045e-25)
(67.6328 -37.2374 0)
(67.6389 -37.2628 0)
(67.6449 -37.2889 3.52569e-17)
(67.6509 -37.3158 -3.52534e-17)
(67.6567 -37.3435 3.52095e-17)
(67.6624 -37.3721 -3.52057e-17)
(67.668 -37.4015 3.51582e-17)
(67.6734 -37.4319 -3.5154e-17)
(67.6787 -37.4632 0)
(67.6837 -37.4956 0)
(67.6886 -37.5289 0)
(67.6933 -37.5634 -5.00203e-25)
(67.6977 -37.5989 -3.49783e-17)
(67.7018 -37.6356 3.49731e-17)
(67.7057 -37.6735 5.00133e-25)
(67.7092 -37.7126 -3.48723e-17)
(67.7124 -37.753 3.48667e-17)
(67.7153 -37.7948 0)
(67.7177 -37.8379 1.54444e-24)
(67.7198 -37.8824 0)
(67.7213 -37.9284 4.99863e-25)
(67.7224 -37.9759 -3.46243e-17)
(67.7229 -38.0251 3.46182e-17)
(67.723 -38.0757 0)
(67.7223 -38.1282 1.54551e-24)
(67.7212 -38.1823 -9.98559e-25)
(67.7191 -38.2377 1.54479e-24)
(67.7152 -38.2972 -1.5586e-24)
(67.7132 -38.3552 0)
(67.7079 -38.4177 -2.10326e-24)
(67.7021 -38.4826 0)
(67.6976 -38.5466 0)
(67.6871 -38.6178 -3.48496e-17)
(67.6783 -38.6896 3.44066e-17)
(67.6719 -38.7598 -9.62877e-25)
(67.6645 -38.8343 -3.3813e-17)
(67.6525 -38.9121 6.81416e-17)
(67.6385 -38.9943 -6.78855e-17)
(67.6249 -39.0802 7.04553e-20)
(67.6127 -39.1614 3.3583e-17)
(67.5906 -39.258 -3.48317e-17)
(67.5741 -39.3475 7.92079e-20)
(67.5593 -39.4385 3.3338e-17)
(67.5385 -39.5353 -6.16923e-24)
(67.5165 -39.6379 -3.35002e-17)
(67.4901 -39.7437 3.26475e-17)
(67.4651 -39.8489 1.98561e-24)
(67.4299 -39.9677 -6.35844e-24)
(67.4016 -40.0777 -6.1424e-24)
(67.3758 -40.195 0)
(67.3435 -40.322 1.97307e-24)
(67.3056 -40.4519 -3.94285e-24)
(67.2638 -40.5888 0)
(67.2183 -40.7287 3.21395e-17)
(67.1642 -40.8763 -3.71e-17)
(67.1153 -40.9995 0)
(67.0574 -41.1493 3.8447e-24)
(66.9921 -41.3122 1.30494e-23)
(66.9285 -41.4722 0)
(66.8655 -41.6404 3.05544e-17)
(66.8057 -41.8125 -3.14383e-17)
(66.7385 -41.9986 0)
(66.6706 -42.1786 -3.14322e-17)
(66.5957 -42.3669 3.06658e-17)
(66.5163 -42.5586 3.07582e-17)
(66.4296 -42.7611 -1.56729e-19)
(66.3284 -42.9775 -3.10626e-17)
(66.2244 -43.1943 2.17073e-23)
(66.1275 -43.4032 0)
(66.0212 -43.6403 3.02888e-17)
(65.9125 -43.8862 -2.9011e-17)
(65.7954 -44.1497 -1.23682e-23)
(65.6726 -44.4201 3.24485e-23)
(65.5452 -44.6903 2.47199e-23)
(65.4058 -44.9654 7.86738e-24)
(65.2612 -45.245 0)
(65.1217 -45.5166 -7.13104e-24)
(64.9687 -45.8201 -7.67117e-24)
(64.7988 -46.1445 7.66165e-24)
(64.624 -46.4746 -2.82096e-17)
(64.4347 -46.8186 2.36723e-19)
(64.2632 -47.1296 2.61864e-17)
(64.0559 -47.5028 2.81769e-17)
(63.854 -47.8704 -2.76434e-17)
(63.6284 -48.2705 9.39579e-24)
(63.4004 -48.6758 -2.8749e-17)
(63.1734 -49.0836 2.56042e-17)
(62.9396 -49.5257 2.63675e-17)
(62.6593 -50.026 -2.68579e-17)
(62.3841 -50.5029 2.64932e-17)
(62.0484 -51.0382 -2.33821e-19)
(61.8114 -51.4326 -2.33301e-17)
(61.4534 -52.0064 0)
(61.15 -52.5194 0)
(60.7531 -53.1134 2.62564e-17)
(60.412 -53.6412 -5.17186e-17)
(59.9413 -54.2792 2.63529e-17)
(59.5642 -54.8079 0)
(59.0124 -55.4872 0)
(58.6044 -55.9979 -2.60606e-17)
(57.9316 -56.7559 9.21769e-20)
(57.4691 -57.3004 2.78556e-17)
(56.6586 -58.2143 3.40377e-17)
(56.047 -58.7644 -4.70334e-17)
(55.543 -59.1381 4.16755e-17)
(54.344 -60.2697 -5.5012e-20)
(53.6576 -60.8703 -2.57425e-17)
(52.7288 -61.5581 2.81341e-23)
(51.7705 -62.1465 2.8317e-23)
(50.7297 -62.8003 -1.03311e-22)
(49.3776 -63.8498 0)
(48.4429 -64.3978 -9.27387e-23)
(47.4091 -64.8736 2.26298e-17)
(45.9191 -65.6231 6.32683e-20)
(44.7861 -66.198 -2.62987e-17)
(43.2416 -67.0921 1.24383e-22)
(42.121 -67.567 2.05572e-22)
(40.8965 -68.0937 -7.93941e-23)
(38.968 -69.0704 2.9682e-17)
(37.7515 -69.5431 -2.59924e-17)
(36.3684 -70.2051 2.84888e-17)
(34.3738 -71.1916 -3.79005e-19)
(33.0727 -71.6554 -2.56609e-17)
(31.3741 -72.1302 -2.75665e-17)
(29.473 -72.7395 3.10571e-17)
(27.615 -73.361 -3.14043e-22)
(25.8009 -73.8892 0)
(23.9396 -74.2725 0)
(21.6662 -74.9046 -2.16754e-22)
(19.5298 -75.284 0)
(17.2048 -75.8279 -4.38513e-22)
(14.9602 -76.0295 0)
(12.4392 -76.503 -2.63254e-22)
(9.70247 -76.2588 0)
(6.96459 -75.9329 0)
(3.97687 -75.1846 8.56361e-22)
(0.968119 -73.1171 2.43237e-22)
(-2.04337 -71.6457 -7.66924e-22)
(-5.1957 -70.2227 0)
(-8.03198 -69.2094 0)
(-11.0121 -68.489 3.59352e-17)
(-14.1476 -67.6683 3.06021e-19)
(-16.9952 -66.8758 -2.8293e-17)
(-19.8991 -66.0533 0)
(-22.5023 -65.2144 4.59911e-22)
(-25.5691 -64.0592 -1.30281e-17)
(-27.9494 -63.0939 1.60678e-17)
(-31.3786 -61.3447 1.0313e-17)
(-33.7357 -59.8791 -1.55753e-17)
(-36.7715 -58.1516 0)
(-39.049 -56.6717 0)
(-42.2259 -54.2317 9.65098e-18)
(-44.1338 -52.6587 -1.03364e-17)
(-46.7382 -50.4216 6.42118e-22)
(-48.5545 -48.6836 7.16515e-22)
(-50.8873 -46.4746 0)
(-52.6756 -44.524 0)
(-54.6668 -42.2857 0)
(-56.1986 -40.5852 0)
(-58.0201 -38.5342 0)
(-59.537 -36.7949 0)
(-61.1049 -34.9799 0)
(-62.5601 -33.2209 3.15507e-18)
(-64.123 -31.5045 -5.53775e-18)
(-65.4597 -30.0083 2.97465e-18)
(-66.5889 -28.6154 1.3478e-18)
(-67.6928 -26.9102 -1.22061e-18)
(-68.7377 -25.8726 5.42175e-22)
(-69.7687 -24.5558 -6.57061e-23)
(-70.3584 -24.0928 -2.55517e-22)
(67.9243 -25.0361 1.45563e-17)
(67.9046 -25.0622 -7.48293e-18)
(67.8848 -25.0888 1.75765e-25)
(67.8648 -25.1161 -3.64046e-25)
(67.8444 -25.1439 -1.84064e-25)
(67.8236 -25.1723 0)
(67.8024 -25.2013 -3.90038e-25)
(67.7808 -25.231 1.92987e-25)
(67.7587 -25.2614 1.97651e-25)
(67.7362 -25.2925 3.91113e-25)
(67.7131 -25.3243 0)
(67.6896 -25.3569 -8.49268e-18)
(67.6656 -25.3902 8.49723e-18)
(67.641 -25.4243 8.51858e-18)
(67.616 -25.4592 -8.52314e-18)
(67.5904 -25.4949 -8.54533e-18)
(67.5643 -25.5314 8.54992e-18)
(67.5377 -25.5688 -3.89435e-25)
(67.5105 -25.6071 3.98132e-25)
(67.4828 -25.6463 3.9017e-25)
(67.4545 -25.6864 3.90543e-25)
(67.4256 -25.7275 0)
(67.3962 -25.7695 -8.64741e-18)
(67.3663 -25.8125 8.65221e-18)
(67.3357 -25.8565 7.80851e-27)
(67.3045 -25.9015 -8.69613e-18)
(67.2727 -25.9475 8.70096e-18)
(67.2403 -25.9947 0)
(67.2073 -26.0429 -7.87377e-25)
(67.1736 -26.0921 7.88209e-25)
(67.1393 -26.1426 0)
(67.1043 -26.1941 0)
(67.0686 -26.2468 0)
(67.0323 -26.3007 0)
(66.9953 -26.3559 0)
(66.9577 -26.4122 0)
(66.9193 -26.4698 1.7816e-17)
(66.8803 -26.5287 -1.78268e-17)
(66.8405 -26.589 0)
(66.8 -26.6506 8.09448e-25)
(66.7587 -26.7136 0)
(66.7166 -26.778 0)
(66.6739 -26.8439 0)
(66.6304 -26.9113 0)
(66.5861 -26.9802 -1.81996e-17)
(66.5408 -27.0507 3.64638e-17)
(66.4946 -27.1229 -1.82642e-17)
(66.4475 -27.1968 -1.61076e-24)
(66.3998 -27.2725 1.84184e-17)
(66.3515 -27.35 -1.84304e-17)
(66.3025 -27.4296 -1.63437e-24)
(66.2527 -27.5108 1.85956e-17)
(66.2018 -27.5941 -1.86078e-17)
(66.1497 -27.6794 -1.63874e-24)
(66.0974 -27.7666 -3.25401e-24)
(66.0437 -27.8574 0)
(65.9888 -27.9483 -1.61871e-24)
(65.935 -28.0388 0)
(65.8766 -28.1425 -1.68899e-24)
(65.8216 -28.2345 -1.59077e-24)
(65.7611 -28.3432 0)
(65.7017 -28.4463 1.03225e-26)
(65.6437 -28.5383 1.93435e-17)
(65.5803 -28.6634 -2.05891e-17)
(65.5183 -28.7849 -1.83788e-17)
(65.4605 -28.9169 2.23915e-17)
(65.395 -29.0582 0)
(65.3314 -29.1531 0)
(65.269 -29.2206 2.87031e-24)
(65.1697 -29.4346 1.32271e-23)
(65.113 -29.5566 1.62392e-17)
(65.0728 -29.625 -1.35187e-17)
(64.9701 -29.86 9.04146e-24)
(64.915 -29.9903 -1.6653e-17)
(64.8538 -30.1028 1.63016e-17)
(64.7759 -30.2407 1.65929e-17)
(64.6884 -30.4072 1.23579e-19)
(64.6024 -30.5588 -2.61512e-17)
(64.5012 -30.765 0)
(64.429 -30.9227 5.6336e-24)
(64.3553 -31.0628 -1.7826e-17)
(64.2812 -31.215 -1.01245e-19)
(64.2058 -31.4223 -7.71021e-20)
(64.0937 -31.7049 3.06324e-17)
(64.02 -31.8512 1.84724e-17)
(63.954 -31.9778 -1.50465e-17)
(63.8555 -32.2009 2.1128e-17)
(63.7563 -32.4179 -2.56285e-17)
(63.6566 -32.6252 -2.48997e-17)
(63.5698 -32.8128 4.00902e-17)
(63.4683 -33.0472 -2.32579e-17)
(63.378 -33.275 0)
(63.3114 -33.4988 -1.90799e-17)
(63.1812 -33.8667 -1.39726e-19)
(63.0909 -34.091 4.61271e-17)
(62.9474 -34.4168 -3.77167e-17)
(62.8588 -34.5958 -2.15907e-17)
(62.7581 -34.8164 1.80315e-17)
(62.5994 -35.1985 3.86418e-17)
(62.5077 -35.3719 1.10158e-19)
(62.4062 -35.5962 -2.03507e-17)
(62.2841 -35.9073 -1.26594e-23)
(62.1496 -36.2489 2.5196e-17)
(62.0122 -36.6104 -2.43276e-17)
(61.8966 -36.9425 -2.41825e-17)
(61.7587 -37.2992 2.47935e-17)
(61.614 -37.6508 2.51279e-17)
(61.4669 -37.9977 -2.53956e-17)
(61.3159 -38.3504 2.79481e-17)
(61.1689 -38.6832 -2.41264e-17)
(60.9956 -39.0992 0)
(60.8405 -39.5071 0)
(60.6811 -39.9244 0)
(60.488 -40.3632 2.71395e-23)
(60.3015 -40.7822 -3.55522e-23)
(60.1109 -41.2215 -2.84563e-17)
(59.9279 -41.6493 2.75612e-17)
(59.7174 -42.1229 2.9101e-17)
(59.511 -42.5946 -2.78002e-17)
(59.2791 -43.0842 -1.2199e-22)
(59.0181 -43.6066 8.17877e-24)
(58.7654 -44.1209 5.6392e-23)
(58.4944 -44.664 -2.95301e-17)
(58.2163 -45.1786 2.99435e-17)
(57.8884 -45.7508 0)
(57.5806 -46.2954 -6.59754e-23)
(57.2185 -46.8567 -3.0689e-17)
(56.8127 -47.4273 3.1369e-17)
(56.3782 -48.0259 3.2287e-17)
(55.9715 -48.5899 1.62769e-19)
(55.4796 -49.2203 -3.16433e-17)
(55.0267 -49.769 -3.2159e-17)
(54.4285 -50.4652 7.02164e-17)
(53.9478 -51.0314 1.07647e-19)
(53.2444 -51.8437 -4.16959e-17)
(52.6692 -52.4046 -2.14131e-23)
(52.0787 -52.8786 -2.51888e-17)
(51.1893 -53.7414 5.17716e-17)
(50.5373 -54.3665 -3.20839e-17)
(49.8341 -54.9017 2.92678e-17)
(49.002 -55.43 0)
(47.9029 -56.3968 1.93087e-22)
(47.2039 -56.997 2.92076e-22)
(46.3465 -57.6417 1.17363e-22)
(45.5532 -58.1937 1.03831e-22)
(44.1003 -59.1983 1.93875e-22)
(43.2236 -59.8814 2.97395e-17)
(41.9754 -60.8191 -5.04994e-17)
(40.9905 -61.4136 -2.29386e-22)
(39.9262 -61.9638 0)
(38.3726 -62.8666 6.70456e-23)
(37.1998 -63.5334 -2.8891e-22)
(35.7839 -64.2932 4.27145e-17)
(34.0995 -65.2298 2.19166e-19)
(32.7348 -65.8452 -4.01405e-17)
(31.1589 -66.4509 0)
(29.4337 -67.0304 -4.6733e-17)
(27.6321 -67.7179 4.81219e-17)
(25.6661 -68.3333 0)
(23.9056 -68.8823 0)
(21.7786 -69.2768 0)
(19.843 -69.8062 0)
(17.4215 -70.0884 7.61846e-22)
(15.4351 -70.5539 0)
(12.8271 -70.4814 0)
(10.5262 -70.8254 -6.93839e-17)
(7.87321 -70.5024 7.28318e-17)
(5.29356 -69.0414 -2.93001e-17)
(2.46651 -67.777 3.54807e-17)
(-0.441758 -65.5048 -2.78492e-17)
(-3.36135 -64.1753 -2.06746e-19)
(-6.52111 -63.2607 -2.06228e-19)
(-9.76627 -62.4398 4.98636e-17)
(-13.1763 -61.5571 -2.36549e-17)
(-16.0635 -60.6911 0)
(-19.3769 -59.6175 0)
(-22.7706 -58.2746 -5.17507e-22)
(-26.1761 -56.7172 -1.90241e-17)
(-28.7254 -55.4313 1.33232e-19)
(-31.8747 -53.7302 1.94038e-19)
(-35.2006 -51.6605 1.76687e-17)
(-37.7126 -50.1222 1.21639e-21)
(-40.6752 -48.0464 1.09983e-21)
(-43.0383 -46.3023 0)
(-45.5121 -44.4487 8.82439e-22)
(-47.9624 -42.3678 -7.88709e-22)
(-50.1042 -40.4733 1.02797e-21)
(-52.069 -38.5747 1.24989e-17)
(-54.0823 -36.5853 -4.94879e-19)
(-55.8364 -34.8484 -1.16088e-17)
(-57.5751 -33.0679 0)
(-59.1893 -31.4227 0)
(-60.7103 -29.8734 -4.52886e-18)
(-62.1703 -28.3925 2.77499e-19)
(-63.5102 -27.124 4.06733e-18)
(-64.764 -25.9523 8.83281e-22)
(-66.0306 -24.8077 0)
(-67.153 -23.6415 0)
(-68.1098 -23.1047 0)
(-69.0184 -22.3144 -6.51766e-19)
(-69.9463 -21.4058 8.86828e-19)
(-71.493 -20.4489 -2.041e-19)
(65.8176 -31.6811 -9.25462e-18)
(65.8165 -31.6881 -1.68293e-25)
(65.8132 -31.6976 -1.84392e-25)
(65.8095 -31.7073 1.87732e-25)
(65.8057 -31.7173 4.22503e-25)
(65.8018 -31.7274 0)
(65.7978 -31.738 -1.79305e-17)
(65.7936 -31.7487 -1.12142e-21)
(65.7893 -31.76 1.83401e-17)
(65.7849 -31.7712 -7.00331e-25)
(65.7801 -31.7836 0)
(65.7755 -31.7953 4.75772e-25)
(65.7705 -31.808 5.1095e-25)
(65.765 -31.8223 1.77622e-17)
(65.7603 -31.8343 -1.60971e-17)
(65.7544 -31.8497 0)
(65.7494 -31.8626 1.5878e-17)
(65.743 -31.8793 1.20059e-21)
(65.7378 -31.8927 -1.55005e-17)
(65.7309 -31.9104 -4.26527e-25)
(65.7252 -31.9248 -3.48999e-25)
(65.7177 -31.944 1.02586e-24)
(65.7117 -31.9589 -1.15602e-24)
(65.7036 -31.9795 0)
(65.6973 -31.9952 1.14169e-24)
(65.6885 -32.0174 -1.93484e-17)
(65.6818 -32.0338 1.45921e-17)
(65.6722 -32.0578 -1.93687e-17)
(65.6652 -32.0747 1.42809e-17)
(65.6547 -32.1007 -1.93375e-17)
(65.6474 -32.1181 1.397e-17)
(65.6358 -32.1463 0)
(65.628 -32.1642 0)
(65.6153 -32.1948 0)
(65.607 -32.2137 7.40168e-25)
(65.5937 -32.2461 -1.14248e-24)
(65.5844 -32.267 -6.31887e-25)
(65.5702 -32.3008 -2.48278e-24)
(65.5598 -32.323 -1.44597e-17)
(65.5453 -32.3568 4.73181e-17)
(65.5331 -32.3832 -9.85136e-22)
(65.5175 -32.4187 -2.36195e-17)
(65.5044 -32.4479 1.72096e-17)
(65.489 -32.4837 -1.73199e-17)
(65.4718 -32.5225 -2.28752e-17)
(65.4537 -32.5593 1.40667e-21)
(65.4411 -32.584 2.83498e-17)
(65.4241 -32.6208 -3.40452e-17)
(65.4056 -32.6612 3.79475e-17)
(65.3872 -32.7022 -1.89761e-17)
(65.3653 -32.7517 1.89749e-17)
(65.3427 -32.8007 -3.94254e-21)
(65.3238 -32.8379 -1.59466e-17)
(65.3083 -32.8738 0)
(65.2745 -32.947 -2.22924e-17)
(65.2593 -32.9754 1.12724e-21)
(65.2358 -33.0205 1.89807e-17)
(65.2023 -33.0914 0)
(65.1754 -33.1443 0)
(65.1505 -33.1939 -1.4608e-17)
(65.1244 -33.2426 3.17486e-17)
(65.0924 -33.2987 -1.92541e-21)
(65.0705 -33.3419 -1.43897e-17)
(65.0312 -33.4226 -1.98759e-17)
(65.0018 -33.4787 3.13793e-17)
(64.9639 -33.5456 -3.15355e-17)
(64.9325 -33.6031 3.29092e-17)
(64.8937 -33.684 -3.30709e-17)
(64.8584 -33.7534 1.58683e-17)
(64.8189 -33.8262 1.19809e-24)
(64.7763 -33.9134 -1.53787e-17)
(64.7381 -33.9917 3.31525e-17)
(64.6985 -34.0619 -1.56424e-17)
(64.6398 -34.1639 -2.05425e-17)
(64.5923 -34.2583 1.56274e-17)
(64.547 -34.3449 1.65823e-17)
(64.4966 -34.4231 -2.98942e-17)
(64.4502 -34.4807 1.65338e-17)
(64.3689 -34.6422 0)
(64.3189 -34.7471 7.24251e-24)
(64.2794 -34.8142 1.27976e-17)
(64.2038 -34.9442 -2.63794e-17)
(64.1316 -35.0718 -1.70652e-23)
(64.0539 -35.1884 1.61072e-23)
(63.9875 -35.277 1.58907e-17)
(63.8781 -35.4674 -2.70131e-20)
(63.8117 -35.5986 -1.62498e-17)
(63.743 -35.7199 0)
(63.6593 -35.8336 0)
(63.5636 -35.9462 -3.08213e-17)
(63.4423 -36.1662 5.57072e-17)
(63.3574 -36.3161 3.28861e-17)
(63.2738 -36.4357 -6.06282e-17)
(63.1599 -36.5785 3.07922e-17)
(63.0076 -36.8353 0)
(62.9573 -36.9248 -2.56922e-17)
(62.7748 -37.238 1.13808e-16)
(62.6842 -37.3717 -3.13785e-17)
(62.5126 -37.5897 0)
(62.4117 -37.7468 0)
(62.2627 -38.0066 -4.1641e-17)
(62.1384 -38.1818 3.01059e-17)
(62.0433 -38.2788 3.01706e-23)
(61.7853 -38.6864 -5.86623e-17)
(61.725 -38.8071 2.61494e-17)
(61.4675 -39.2359 -5.90954e-17)
(61.3248 -39.4535 3.46235e-17)
(61.1404 -39.7363 -2.83204e-23)
(60.9584 -39.9859 0)
(60.8019 -40.1638 3.37257e-17)
(60.469 -40.62 -1.14689e-16)
(60.285 -40.8975 3.54594e-17)
(60.0782 -41.1756 3.62046e-17)
(59.921 -41.3521 -5.69937e-17)
(59.5875 -41.8049 7.52812e-17)
(59.2171 -42.3754 -1.14965e-16)
(59.0711 -42.5675 3.2327e-17)
(58.749 -43.0255 -4.11569e-17)
(58.4592 -43.3703 -8.63114e-20)
(58.1292 -43.674 2.88913e-17)
(57.8272 -43.898 -3.83532e-17)
(57.3408 -44.5226 5.26393e-17)
(56.9844 -44.9285 0)
(56.7519 -45.1166 1.26258e-22)
(56.2066 -45.7579 5.32226e-17)
(55.8162 -46.1505 -7.42418e-17)
(55.389 -46.478 -1.59218e-19)
(54.8322 -46.8791 3.61576e-17)
(54.4334 -47.2443 3.97391e-17)
(53.774 -47.9427 -4.75119e-17)
(53.4328 -48.2191 3.53395e-17)
(52.8083 -48.7652 -4.26271e-17)
(52.2146 -49.2418 0)
(51.5876 -49.7011 1.29865e-22)
(50.9876 -50.1081 1.41998e-22)
(50.1952 -50.8645 1.88903e-22)
(49.5059 -51.4218 3.99186e-17)
(49.0688 -51.5957 -3.56056e-17)
(47.9657 -52.565 -2.12018e-22)
(47.2604 -53.2235 1.3937e-22)
(46.5831 -53.6934 -3.62614e-17)
(45.7714 -54.1591 3.80564e-17)
(44.5641 -54.9462 -6.31992e-17)
(43.7254 -55.6057 -9.58763e-21)
(42.9266 -56.155 -1.54734e-19)
(41.995 -56.6824 -3.56336e-19)
(40.9488 -57.2131 9.00875e-17)
(39.8855 -57.8128 3.52532e-19)
(38.6229 -58.5637 3.18718e-19)
(37.422 -59.1863 -1.01274e-16)
(36.3882 -59.6705 -2.79174e-19)
(35.0154 -60.3042 5.41063e-17)
(33.8034 -60.8312 5.1938e-17)
(32.3281 -61.4838 -5.91656e-17)
(30.9143 -62.1029 -5.24414e-17)
(29.3412 -62.6191 6.26233e-17)
(27.86 -63.096 -3.83222e-22)
(26.1789 -63.5374 0)
(24.5854 -64.0342 -9.797e-22)
(22.6991 -64.4019 3.59887e-17)
(21.0074 -64.8587 -3.10578e-17)
(18.9281 -65.0566 3.71139e-17)
(17.1379 -65.4958 3.84014e-19)
(14.8377 -65.5216 -7.2795e-17)
(12.8245 -65.9009 3.97782e-17)
(10.4821 -65.4778 -3.68429e-17)
(8.11974 -65.0762 -3.87346e-19)
(5.58248 -64.4096 4.5909e-17)
(2.97879 -62.3712 3.72909e-17)
(0.26227 -60.8604 -4.37645e-17)
(-2.46122 -59.3254 -2.68499e-21)
(-5.18001 -58.323 -2.14378e-21)
(-7.8595 -57.637 0)
(-10.4692 -56.9983 3.10108e-17)
(-13.2267 -56.3056 -1.53636e-19)
(-15.9659 -55.6544 -2.63704e-17)
(-18.1556 -54.9628 -3.12007e-17)
(-22.0927 -53.5254 5.07764e-17)
(-24.0997 -52.8231 -4.81085e-17)
(-27.5343 -51.4385 4.52424e-17)
(-29.7648 -50.5412 -2.16521e-17)
(-32.883 -49.0365 2.02283e-17)
(-35.3034 -47.8459 -1.96585e-17)
(-38.1644 -46.2616 -2.37454e-21)
(-40.672 -44.8124 0)
(-43.2774 -43.125 0)
(-45.6996 -41.4889 -1.77699e-21)
(-48.0349 -39.834 1.90753e-21)
(-50.2445 -38.1794 6.91468e-18)
(-52.3486 -36.5007 -6.78379e-18)
(-54.3553 -34.8827 0)
(-56.2791 -33.2336 0)
(-58.081 -31.6851 -1.41019e-21)
(-59.8325 -30.0931 -1.30838e-21)
(-61.4598 -28.6374 4.60814e-18)
(-63.0453 -27.2379 -8.53358e-18)