/*--------------------------------*- C++ -*----------------------------------*\
  =========                 |
  \\      /  F ield         | OpenFOAM: The Open Source CFD Toolbox
   \\    /   O peration     | Website:  https://openfoam.org
    \\  /    A nd           | Version:  7
     \\/     M anipulation  |
\*---------------------------------------------------------------------------*/
FoamFile
{
    version     2.0;
    format      ascii;
    class       volScalarField;
    location    "1";
    object      p;
}
// * * * * * * * * * * * * * * * * * * * * * * * * * * * * * * * * * * * * * //

dimensions      [0 2 -2 0 0 0 0];

internalField   nonuniform List<scalar> 
76362
(
2268.47
2267.82
2267.36
2267.08
2266.81
2266.5
2266.18
2265.85
2265.51
2265.16
2264.81
2264.43
2264.04
2263.62
2263.18
2262.7
2262.21
2261.68
2261.12
2260.54
2259.92
2259.26
2258.58
2257.85
2257.09
2256.29
2255.44
2254.56
2253.62
2252.65
2251.62
2250.54
2249.41
2248.22
2246.98
2245.68
2244.32
2242.89
2241.4
2239.84
2238.21
2236.51
2234.73
2232.87
2230.93
2228.91
2226.8
2224.59
2222.29
2219.9
2217.4
2214.8
2212.09
2209.27
2206.33
2203.28
2200.1
2196.8
2193.37
2189.85
2186.14
2182.33
2178.37
2174.09
2169.89
2165.44
2160.62
2155.62
2150.86
2145.7
2140.07
2134.39
2128.42
2122.25
2115.89
2109.43
2102.4
2095
2087.31
2079.36
2071.33
2062.73
2053.84
2044.64
2035.5
2026.02
2016.17
2006.36
1995.96
1985.11
1973.91
1962.42
1950.56
1938.37
1925.78
1912.84
1899.5
1885.8
1871.77
1857.4
1842.66
1827.43
1811.7
1795.61
1779.15
1762.28
1745
1727.3
1709.16
1690.6
1671.54
1652.06
1632.15
1611.74
1590.99
1569.79
1548.09
1525.9
1503.21
1480.09
1456.43
1432.37
1407.75
1382.76
1357.2
1331.33
1304.7
1277.61
1249.87
1222.37
1193.34
1163.85
1133.61
1103.45
1072.53
1040.29
1007.77
973.331
938.152
899.355
867.237
828.214
797.269
755.391
727.94
682.316
660.382
625.106
594.784
566.68
538.666
511.683
480.817
451.882
424.546
400.777
374.56
351.182
327.939
305.846
286.835
270.117
257.71
248.653
246.552
254.551
270.78
293.836
323.756
372.573
447.745
522.461
612.284
708.383
808.975
904.472
998.662
1086.5
1162.91
1222.42
1271.21
1298.41
1318.74
1319.62
1315.47
1293.95
1270.44
1220.51
1179.2
1102.93
1061.64
981.971
934.186
879.57
827.574
842.942
713.855
715.215
729.058
638.941
482.883
633.178
-157.253
-156.41
-155.668
-155.096
-154.552
-153.982
-153.392
-152.795
-152.189
-151.572
-150.943
-150.3
-149.642
-148.967
-148.276
-147.569
-146.844
-146.103
-145.344
-144.567
-143.77
-142.954
-142.116
-141.257
-140.376
-139.471
-138.542
-137.588
-136.608
-135.602
-134.568
-133.506
-132.415
-131.294
-130.141
-128.957
-127.74
-126.49
-125.205
-123.884
-122.527
-121.132
-119.7
-118.228
-116.715
-115.162
-113.567
-111.929
-110.247
-108.52
-106.749
-104.928
-103.066
-101.146
-99.1958
-97.1636
-95.1355
-92.9754
-90.9409
-88.9489
-86.538
-84.7719
-82.1885
-79.277
-78.5874
-76.9259
-72.4987
-69.096
-68.1643
-65.864
-61.9568
-59.0402
-55.5252
-51.4879
-48.244
-45.4166
-41.4197
-37.1353
-32.4145
-28.0566
-23.9094
-19.2539
-14.5763
-9.94951
-6.59741
-2.54046
1.61097
5.08393
9.40664
14.2362
19.1322
23.942
28.8672
33.8264
38.9086
44.0903
49.5486
55.321
61.1256
66.6978
72.1959
78.171
84.7703
91.2526
97.3853
104.019
111.227
118.465
125.583
132.476
138.984
145.877
153.086
160.711
168.415
176.585
185.071
194.005
203.09
212.238
221.822
231.72
242.189
253.063
264.463
275.938
287.273
298.768
310.033
322.159
335.101
348.148
360.655
374.692
388.725
398.91
411.358
423.906
429.892
445.062
463.944
479.616
496.711
508.242
524.052
536.857
550.478
561.98
574.526
585.517
600.321
615.064
624.961
632.6
639.796
654.311
660.962
672.434
681.078
686.719
687.597
690.592
700.733
711.532
725.002
741.552
760.609
781.911
806.455
828.232
855.05
889.674
924.567
956.156
983.336
996.647
1003.48
1012.42
1016.1
1013.32
1002.31
1001.06
984.9
950.856
936.825
938.093
919.714
888.821
857.892
796.532
755.733
720.241
680.611
641.028
598.439
563.818
537.401
511.654
449.959
400.572
378.791
385.414
1681.8
1681.01
1680.46
1680.14
1679.85
1679.52
1679.18
1678.83
1678.47
1678.09
1677.7
1677.29
1676.86
1676.41
1675.95
1675.46
1674.96
1674.44
1673.9
1673.33
1672.75
1672.14
1671.51
1670.86
1670.18
1669.48
1668.75
1668
1667.21
1666.4
1665.56
1664.68
1663.78
1662.84
1661.87
1660.86
1659.81
1658.73
1657.61
1656.45
1655.25
1654
1652.71
1651.38
1650
1648.57
1647.09
1645.55
1643.97
1642.33
1640.63
1638.88
1637.06
1635.19
1633.25
1631.25
1629.18
1627.05
1624.84
1622.63
1620.26
1617.91
1615.45
1612.63
1610.19
1607.59
1604.61
1601.46
1598.71
1595.56
1591.88
1588.44
1584.76
1580.75
1576.65
1572.84
1568.51
1563.96
1559.19
1554.2
1549.27
1543.87
1538.55
1533.08
1528.05
1522.94
1517.81
1513.07
1507.93
1502.31
1496.46
1490.4
1484.1
1477.78
1471.08
1464.2
1457.31
1450.36
1443.06
1435.59
1427.99
1419.94
1411.5
1403.01
1394.61
1386.07
1377.1
1367.34
1356.97
1346.56
1337.14
1327.93
1318.08
1308.19
1298.46
1288.15
1277.65
1267.13
1256.59
1246.55
1236.86
1227.53
1218.54
1209.61
1200.92
1192.28
1183.36
1174.77
1168.37
1164.14
1159.1
1154.25
1149
1147.85
1140.9
1136.32
1148.29
1150.59
1152.24
1162.05
1160.82
1159.25
1147.19
1134.58
1135.36
1139.04
1138.71
1134.72
1125
1118.5
1123.26
1120.94
1117.2
1122.23
1134.12
1126.1
1121.88
1134.67
1147.22
1155.17
1163
1176.3
1188.15
1203.9
1227.02
1250.91
1274.99
1295.06
1311.48
1324.31
1334.04
1346.26
1364.51
1381.22
1402.33
1416.41
1415.05
1421.81
1422.11
1423.87
1430.34
1406.34
1404.21
1375.38
1309.68
1277.02
1262.49
1213.57
1170.9
1129.6
1060.82
1011.42
959.48
911.526
860.711
809.593
747.039
718.838
665.838
606.88
561.125
531.583
764.663
765.257
765.85
766.446
767.058
767.688
768.335
768.993
769.662
770.342
771.038
771.752
772.482
773.232
774
774.788
775.596
776.426
777.276
778.15
779.047
779.969
780.92
781.895
782.898
783.924
784.981
786.065
787.175
788.319
789.492
790.701
791.938
793.213
794.52
795.868
797.25
798.676
800.135
801.643
803.187
804.782
806.413
808.107
809.852
811.65
813.483
815.365
817.291
819.274
821.299
823.406
825.593
827.82
830.137
832.472
834.902
837.364
839.859
842.6
845.136
847.743
850.953
853.812
856.712
860.215
862.888
864.551
866.994
871.71
876.534
879.237
881.995
886.937
892.337
895.254
898.428
902.869
906.646
910.769
916.677
922.495
927.997
933.122
938.343
943.595
948.276
952.953
957.397
961.999
967.09
972.869
978.193
982.627
988.476
995.33
1002.01
1008.3
1013.76
1019.46
1025.89
1031.98
1037.73
1043.52
1050.05
1057.75
1065.4
1072.05
1079.13
1086.26
1093.36
1099.69
1106.11
1113.59
1121.85
1129.06
1137.37
1145.72
1152.93
1159.87
1167.48
1174.99
1182.25
1188.76
1195.56
1203.32
1210.58
1218.25
1225.38
1233.27
1240.53
1248.62
1255.19
1261.75
1264.03
1264.7
1274.57
1279.43
1282.28
1303.15
1317
1314.1
1317.68
1327.56
1332.1
1344.21
1366.58
1375.15
1377.37
1386.34
1406.05
1421.24
1428.61
1450.3
1470.11
1479.66
1492.17
1508.05
1525.5
1541.73
1557
1574.07
1589.38
1608.68
1632.05
1652.74
1673.87
1695.23
1715.1
1729.98
1743.14
1758.07
1770.93
1774.61
1772.65
1768.65
1757.98
1731.32
1703.21
1673.64
1672.74
1652.55
1603.37
1569.89
1511.26
1457.74
1416.21
1370.76
1308.91
1256.34
1189.14
1124.88
1062.94
998.392
936.812
876.49
811.969
752.609
699.48
650.402
610.102
532.577
1578.24
1577.98
1577.93
1577.96
1577.99
1578.02
1578.04
1578.07
1578.1
1578.12
1578.12
1578.12
1578.12
1578.1
1578.08
1578.06
1578.04
1578.01
1577.98
1577.96
1577.92
1577.86
1577.8
1577.74
1577.68
1577.64
1577.59
1577.54
1577.49
1577.41
1577.34
1577.28
1577.23
1577.17
1577.09
1576.99
1576.89
1576.76
1576.62
1576.44
1576.27
1576.11
1576
1575.89
1575.78
1575.64
1575.47
1575.27
1575
1574.67
1574.36
1574.16
1573.85
1573.59
1573.27
1572.84
1572.56
1572.27
1572.08
1571.52
1570.98
1570.62
1569.68
1568.92
1568.48
1567.8
1567.03
1566.71
1566.89
1566.44
1564.94
1563.83
1563.13
1562.82
1561.98
1560.55
1559.5
1559.44
1558.59
1556.99
1554.91
1553.5
1552.98
1551.64
1549.06
1547.27
1548.1
1547.7
1546.09
1544.55
1543.36
1543.71
1542.47
1539.84
1538.52
1538.93
1540.47
1540.39
1537.91
1536.31
1536.4
1536.85
1536.58
1534.49
1533.56
1535.89
1534.74
1532
1531.35
1534.91
1537.72
1537.8
1537.71
1544.47
1550.28
1550.31
1550.13
1550.21
1548.34
1549.07
1554.29
1560.41
1559.97
1556.48
1558.81
1565.81
1570.21
1571.52
1572.18
1574.66
1580.17
1580.41
1581.52
1587.8
1590.19
1599.35
1608.88
1609.3
1605.53
1607.94
1620.08
1637.78
1647.11
1642.05
1642.73
1659.44
1673.27
1683.54
1693.67
1708.31
1722.71
1731.63
1743.8
1756.41
1774.44
1791.54
1804.1
1819.95
1838.34
1856.49
1874.91
1893.69
1914.31
1936.11
1957.82
1981.77
2004.8
2025.7
2043.92
2055.54
2061.58
2065.74
2067.74
2064.45
2052.69
2042.46
2057.01
2047.21
2016.26
1993.28
1949.69
1924.94
1884.19
1839.88
1790.65
1731.3
1674.34
1610.95
1549.3
1482.67
1411.58
1338.12
1265.25
1192.33
1115.99
1039.36
963.226
890.76
814.545
751.462
695.899
591.504
1287.4
1287.89
1288.4
1288.98
1289.59
1290.19
1290.81
1291.44
1292.1
1292.77
1293.46
1294.16
1294.88
1295.61
1296.36
1297.13
1297.91
1298.72
1299.53
1300.37
1301.23
1302.1
1303
1303.93
1304.87
1305.83
1306.82
1307.84
1308.87
1309.93
1311.02
1312.14
1313.29
1314.47
1315.67
1316.91
1318.19
1319.5
1320.84
1322.23
1323.66
1325.14
1326.64
1328.21
1329.81
1331.45
1333.13
1334.84
1336.6
1338.41
1340.28
1342.22
1344.23
1346.27
1348.38
1350.53
1352.75
1355.03
1357.37
1359.77
1362.2
1364.76
1367.38
1370.03
1372.81
1375.7
1378.53
1381.62
1384.52
1387.53
1390.56
1392.43
1395.06
1400.27
1404.07
1405.7
1408.76
1413.88
1417.53
1419.89
1423.93
1430.48
1434.95
1437.15
1441.37
1448.7
1455.28
1459.75
1464.48
1470.15
1474.03
1476.17
1479.75
1484.89
1489.33
1493.93
1501.74
1508.19
1512.26
1516.89
1521.49
1526.67
1533.12
1538.35
1542.55
1547.91
1552.53
1555.63
1562.17
1570.81
1576.19
1582.6
1587.28
1592.13
1604.4
1611.51
1614.21
1617.25
1622.48
1634.43
1648.77
1654.42
1654.31
1660.67
1676.6
1685.49
1689.16
1698.41
1715.61
1726.15
1727.6
1727.07
1731.44
1744.6
1762.67
1778.66
1786.21
1792.22
1799.78
1810.4
1827.77
1839.5
1846.69
1862.38
1875.1
1882.63
1901.07
1921.46
1934.81
1945.71
1959.86
1979.44
1997.05
2013.92
2030.55
2048.23
2067.53
2086.12
2105.13
2125.23
2145.47
2166.36
2187.77
2210.01
2233.3
2257.06
2280.04
2302.1
2322.48
2336.9
2345.86
2351.62
2355.39
2358.12
2347.23
2322.81
2316.49
2305.71
2266.94
2235.52
2198.2
2150.75
2100.22
2043.73
1982.98
1919.86
1852.28
1780.06
1703.32
1626.58
1545.06
1462.55
1378.64
1295.97
1212.72
1128.28
1044.02
961.979
882.286
811.596
743.164
606.462
1660.68
1660.65
1660.7
1660.9
1661.14
1661.36
1661.58
1661.82
1662.07
1662.34
1662.62
1662.91
1663.19
1663.48
1663.77
1664.07
1664.37
1664.67
1664.98
1665.3
1665.62
1665.95
1666.29
1666.63
1666.97
1667.33
1667.69
1668.07
1668.45
1668.84
1669.24
1669.64
1670.07
1670.5
1670.94
1671.4
1671.87
1672.35
1672.85
1673.36
1673.88
1674.43
1674.98
1675.56
1676.15
1676.76
1677.39
1678.04
1678.71
1679.4
1680.11
1680.85
1681.6
1682.38
1683.19
1684.02
1684.88
1685.76
1686.68
1687.62
1688.59
1689.6
1690.64
1691.71
1692.82
1693.96
1695.14
1696.37
1697.62
1698.99
1700.31
1701.75
1703.38
1705.01
1706.49
1708.28
1710.24
1712.18
1714.03
1716.16
1718.51
1720.72
1722.86
1725.36
1727.54
1729.31
1730.72
1732.42
1734.73
1736.91
1739.05
1741.5
1744.34
1747.28
1750.12
1753.24
1756.3
1758.92
1762.03
1765.44
1769.11
1772.74
1775.96
1779.53
1783.21
1787.38
1791.28
1795.31
1800.43
1804.73
1809.06
1813.85
1818.8
1824.39
1829.06
1833.24
1838.56
1844.61
1851.72
1857.7
1862.84
1867.81
1874.39
1882.33
1890.52
1896.68
1904.2
1912.71
1919.87
1925.43
1932.73
1942.8
1955.05
1966.37
1975.28
1983.04
1992.28
2003.17
2014.05
2026.44
2036.66
2047.35
2061.8
2073.98
2085.13
2101.55
2116.42
2128.99
2143.48
2160.73
2178.52
2194.38
2210.86
2228.29
2247.01
2266.21
2285.09
2304.8
2325.34
2346.27
2367.84
2389.91
2412.7
2436.17
2459.69
2484.04
2507.19
2528.49
2547.74
2560.93
2566.92
2567.9
2568.36
2563.98
2562.42
2554.72
2536.22
2515.1
2486.95
2450.04
2407.86
2362.99
2310.45
2253.43
2189.35
2119.87
2046.4
1968.9
1887.74
1802.64
1714.41
1622.99
1530.47
1436.42
1341.56
1246.3
1150.79
1055.14
962.277
879.012
788.835
635.757
1608
1608.56
1609.17
1609.88
1610.62
1611.36
1612.12
1612.9
1613.7
1614.52
1615.36
1616.22
1617.09
1617.98
1618.88
1619.79
1620.72
1621.67
1622.64
1623.63
1624.63
1625.65
1626.7
1627.76
1628.85
1629.96
1631.09
1632.24
1633.42
1634.62
1635.84
1637.09
1638.37
1639.68
1641.01
1642.37
1643.76
1645.18
1646.62
1648.1
1649.62
1651.16
1652.74
1654.35
1656
1657.69
1659.41
1661.16
1662.96
1664.8
1666.67
1668.59
1670.55
1672.55
1674.6
1676.69
1678.83
1681.02
1683.25
1685.53
1687.86
1690.25
1692.68
1695.17
1697.71
1700.31
1702.97
1705.68
1708.45
1711.29
1714.18
1717.13
1720.16
1723.24
1726.4
1729.61
1732.9
1736.26
1739.68
1743.16
1746.72
1750.36
1754.05
1757.8
1761.66
1765.65
1769.7
1773.91
1778.38
1782.98
1787.61
1792.31
1797.21
1802.22
1807.27
1812.43
1817.76
1823.16
1828.66
1834.37
1840.16
1846.01
1852.06
1858.12
1864.32
1870.91
1877.35
1883.82
1890.83
1897.78
1904.46
1911.73
1919.28
1926.25
1933.81
1941.97
1949.63
1957.62
1966.11
1974.09
1982.55
1991.87
2000.79
2009.88
2019.56
2029.03
2038.43
2048.53
2058.95
2069.39
2080.43
2091.5
2102.15
2112.65
2123.79
2136.06
2148.92
2161.44
2173.74
2185.78
2199.1
2213.36
2227.02
2241.58
2257.18
2271.43
2286.51
2303.83
2321.4
2338.13
2354.8
2373.08
2392.02
2411.17
2430.54
2450.48
2471.16
2492.25
2513.75
2535.89
2558.47
2581.67
2605.39
2629.5
2653.84
2678.54
2702.21
2724.55
2744.91
2760.08
2767.8
2769.43
2771.35
2764.68
2761
2752.61
2729.28
2704.74
2669.61
2632.09
2585.35
2533.11
2474.92
2410.87
2341.86
2267.36
2187.57
2103.21
2015
1923.58
1828.72
1731.21
1631.87
1532.02
1430.75
1329.25
1226.71
1123.38
1023.07
930.236
826.456
654.812
1820.21
1820.36
1820.58
1820.9
1821.25
1821.6
1821.96
1822.33
1822.72
1823.14
1823.57
1824.02
1824.48
1824.94
1825.42
1825.91
1826.41
1826.92
1827.44
1827.98
1828.53
1829.09
1829.66
1830.26
1830.86
1831.48
1832.12
1832.78
1833.45
1834.14
1834.85
1835.59
1836.34
1837.11
1837.91
1838.73
1839.57
1840.44
1841.33
1842.25
1843.2
1844.17
1845.18
1846.21
1847.27
1848.37
1849.5
1850.66
1851.85
1853.08
1854.35
1855.66
1857
1858.38
1859.81
1861.27
1862.78
1864.33
1865.93
1867.58
1869.27
1871.01
1872.8
1874.65
1876.54
1878.5
1880.51
1882.57
1884.7
1886.88
1889.13
1891.44
1893.82
1896.26
1898.78
1901.36
1904.02
1906.75
1909.55
1912.44
1915.4
1918.44
1921.57
1924.78
1928.08
1931.46
1934.93
1938.5
1942.16
1945.91
1949.76
1953.72
1957.79
1961.96
1966.26
1970.69
1975.24
1979.92
1984.74
1989.69
1994.78
2000.04
2005.42
2010.95
2016.69
2022.53
2028.5
2034.73
2041.09
2047.51
2054.23
2061.19
2068.11
2075.33
2082.87
2090.34
2098.04
2106.12
2114.18
2122.47
2131.18
2139.77
2148.55
2157.78
2167.1
2176.53
2186.42
2196.6
2206.91
2217.47
2228.25
2239.33
2250.89
2262.9
2275.16
2287.47
2299.79
2312.37
2325.31
2339.05
2353.01
2366.97
2381.51
2396.24
2410.96
2426.85
2443.41
2459.69
2476.18
2493.53
2511.73
2529.99
2548.61
2567.8
2587.62
2607.99
2628.86
2650.3
2672.34
2694.89
2718.05
2741.82
2766.06
2790.64
2815.27
2840.03
2863.68
2885.78
2905.34
2920.09
2927.3
2927.68
2926.37
2924.34
2920.58
2910.34
2888.71
2863.41
2830.43
2790.96
2745.37
2693.21
2634.33
2568.95
2497.04
2419.29
2335.97
2247.36
2153.96
2056.36
1955.01
1849.93
1742.61
1633.58
1523.88
1413.47
1301.92
1188.72
1079.18
978.346
865.518
679.272
1822.23
1822.73
1823.3
1823.95
1824.62
1825.31
1826.02
1826.75
1827.51
1828.29
1829.09
1829.92
1830.77
1831.64
1832.52
1833.42
1834.34
1835.27
1836.23
1837.21
1838.21
1839.23
1840.27
1841.34
1842.43
1843.54
1844.68
1845.85
1847.04
1848.27
1849.52
1850.8
1852.11
1853.46
1854.83
1856.25
1857.69
1859.17
1860.68
1862.24
1863.83
1865.46
1867.13
1868.84
1870.59
1872.39
1874.23
1876.11
1878.05
1880.03
1882.05
1884.13
1886.26
1888.44
1890.68
1892.97
1895.31
1897.72
1900.18
1902.7
1905.28
1907.92
1910.63
1913.4
1916.24
1919.15
1922.13
1925.18
1928.3
1931.5
1934.77
1938.11
1941.54
1945.05
1948.64
1952.31
1956.07
1959.92
1963.85
1967.88
1972
1976.22
1980.53
1984.94
1989.45
1994.07
1998.79
2003.63
2008.57
2013.63
2018.81
2024.1
2029.52
2035.06
2040.73
2046.53
2052.46
2058.53
2064.72
2071.06
2077.53
2084.15
2090.91
2097.81
2104.86
2112.05
2119.41
2126.92
2134.57
2142.4
2150.39
2158.52
2166.84
2175.33
2183.97
2192.81
2201.84
2211.03
2220.42
2230.02
2239.75
2249.71
2259.89
2270.23
2280.76
2291.51
2302.44
2313.54
2324.85
2336.37
2348.13
2360.12
2372.29
2384.64
2397.23
2410.1
2423.35
2436.9
2450.78
2464.83
2479.11
2493.78
2508.76
2524.16
2540.13
2556.32
2572.69
2589.69
2607.3
2625.24
2643.37
2662.1
2681.38
2701.16
2721.44
2742.31
2763.75
2785.77
2808.34
2831.51
2855.3
2879.69
2904.49
2929.57
2954.81
2979.94
3004.2
3027.03
3047.04
3062.69
3071.04
3071.97
3070.26
3066.52
3063.36
3051.32
3027.91
3000.3
2964.69
2923.33
2874.34
2819.08
2757.01
2688.51
2613.63
2532.5
2445.53
2353.16
2255.94
2154.39
2048.93
1939.76
1827.75
1713.92
1598.82
1483.26
1366.22
1247.73
1132.5
1024.02
898.868
702.217
1972.05
1972.31
1972.63
1973.04
1973.48
1973.92
1974.38
1974.85
1975.35
1975.88
1976.42
1976.99
1977.58
1978.18
1978.8
1979.42
1980.07
1980.72
1981.39
1982.08
1982.78
1983.5
1984.24
1984.99
1985.77
1986.57
1987.38
1988.22
1989.08
1989.97
1990.87
1991.81
1992.77
1993.75
1994.77
1995.81
1996.88
1997.98
1999.11
2000.28
2001.48
2002.71
2003.98
2005.29
2006.63
2008.02
2009.44
2010.91
2012.41
2013.97
2015.56
2017.2
2018.9
2020.64
2022.43
2024.27
2026.16
2028.12
2030.12
2032.19
2034.31
2036.5
2038.75
2041.06
2043.44
2045.89
2048.41
2051
2053.66
2056.4
2059.21
2062.11
2065.08
2068.14
2071.29
2074.52
2077.84
2081.25
2084.76
2088.37
2092.07
2095.87
2099.78
2103.8
2107.92
2112.15
2116.5
2120.96
2125.54
2130.24
2135.07
2140.02
2145.1
2150.32
2155.67
2161.15
2166.78
2172.56
2178.48
2184.55
2190.77
2197.15
2203.68
2210.38
2217.25
2224.28
2231.48
2238.85
2246.4
2254.12
2262.02
2270.1
2278.36
2286.81
2295.44
2304.26
2313.27
2322.47
2331.87
2341.47
2351.31
2361.36
2371.62
2382.09
2392.79
2403.7
2414.83
2426.2
2437.78
2449.59
2461.63
2473.89
2486.41
2499.18
2512.22
2525.5
2538.99
2552.71
2566.67
2580.92
2595.51
2610.4
2625.61
2641.12
2656.89
2673.06
2689.72
2706.73
2724.04
2741.72
2759.95
2778.6
2797.73
2817.38
2837.64
2858.44
2879.85
2901.86
2924.51
2947.77
2971.72
2996.22
3021.18
3046.43
3071.82
3096.95
3121.08
3143.79
3163.35
3178.74
3187.52
3188.58
3185.55
3182.51
3178.89
3167.39
3145.19
3118.23
3083.71
3042.51
2994.33
2938.8
2876.22
2806.34
2729.63
2646.09
2556.23
2460.29
2358.95
2252.79
2142.37
2027.96
1910.51
1790.99
1670.25
1548.65
1424.88
1298.7
1176.34
1061.13
929.713
724.714
1993.7
1994.2
1994.77
1995.4
1996.06
1996.74
1997.44
1998.17
1998.92
1999.7
2000.51
2001.34
2002.2
2003.08
2003.98
2004.89
2005.83
2006.78
2007.76
2008.75
2009.77
2010.81
2011.88
2012.97
2014.09
2015.23
2016.4
2017.6
2018.83
2020.09
2021.38
2022.71
2024.06
2025.45
2026.88
2028.34
2029.83
2031.37
2032.94
2034.55
2036.21
2037.9
2039.64
2041.43
2043.26
2045.13
2047.06
2049.03
2051.06
2053.13
2055.26
2057.45
2059.69
2061.98
2064.34
2066.75
2069.23
2071.77
2074.38
2077.05
2079.79
2082.6
2085.47
2088.43
2091.45
2094.55
2097.73
2100.99
2104.33
2107.75
2111.26
2114.85
2118.54
2122.31
2126.17
2130.13
2134.19
2138.35
2142.6
2146.96
2151.42
2155.99
2160.67
2165.46
2170.36
2175.38
2180.52
2185.78
2191.16
2196.66
2202.29
2208.06
2213.95
2219.98
2226.15
2232.46
2238.91
2245.5
2252.24
2259.13
2266.18
2273.38
2280.73
2288.24
2295.92
2303.76
2311.76
2319.94
2328.28
2336.8
2345.5
2354.37
2363.43
2372.67
2382.1
2391.7
2401.48
2411.44
2421.58
2431.91
2442.41
2453.1
2463.98
2475.04
2486.3
2497.74
2509.39
2521.22
2533.26
2545.5
2557.94
2570.58
2583.44
2596.5
2609.77
2623.26
2636.99
2650.97
2665.21
2679.7
2694.45
2709.46
2724.76
2740.37
2756.33
2772.64
2789.27
2806.25
2823.6
2841.38
2859.52
2878.15
2897.28
2916.97
2937.2
2958.06
2979.51
3001.62
3024.37
3047.84
3071.99
3096.71
3121.91
3147.42
3173.17
3198.52
3223.16
3245.97
3265.45
3280.9
3290.32
3292.12
3288.44
3285.23
3281.27
3268.75
3246.01
3217.42
3181.97
3139.34
3089.76
3032.83
2968.78
2897.43
2819.01
2733.62
2641.63
2543.36
2439.34
2330.14
2216.35
2098.09
1976.33
1852.21
1726.76
1600.34
1471.32
1339.13
1210.59
1091.87
956.138
743.938
2101.97
2102.33
2102.75
2103.24
2103.76
2104.28
2104.83
2105.41
2106.01
2106.63
2107.28
2107.95
2108.65
2109.37
2110.11
2110.87
2111.64
2112.42
2113.23
2114.05
2114.89
2115.75
2116.62
2117.53
2118.45
2119.39
2120.36
2121.35
2122.37
2123.42
2124.49
2125.59
2126.72
2127.89
2129.08
2130.31
2131.57
2132.86
2134.19
2135.56
2136.96
2138.41
2139.9
2141.42
2143
2144.61
2146.27
2147.98
2149.74
2151.55
2153.4
2155.31
2157.28
2159.3
2161.38
2163.52
2165.72
2167.98
2170.3
2172.69
2175.15
2177.68
2180.28
2182.95
2185.7
2188.52
2191.42
2194.41
2197.47
2200.63
2203.87
2207.19
2210.61
2214.13
2217.74
2221.45
2225.26
2229.17
2233.19
2237.32
2241.55
2245.9
2250.37
2254.95
2259.66
2264.48
2269.44
2274.52
2279.73
2285.08
2290.56
2296.19
2301.95
2307.86
2313.92
2320.13
2326.49
2333
2339.68
2346.51
2353.51
2360.67
2368
2375.5
2383.17
2391.01
2399.03
2407.23
2415.61
2424.16
2432.9
2441.82
2450.93
2460.23
2469.72
2479.41
2489.3
2499.38
2509.66
2520.13
2530.8
2541.66
2552.72
2563.97
2575.42
2587.06
2598.89
2610.92
2623.14
2635.56
2648.17
2660.97
2673.97
2687.16
2700.56
2714.16
2727.97
2741.99
2756.22
2770.67
2785.35
2800.29
2815.49
2830.96
2846.71
2862.77
2879.16
2895.88
2912.94
2930.32
2948.15
2966.42
2985.21
3004.53
3024.44
3044.95
3066.11
3087.94
3110.49
3133.77
3157.74
3182.32
3207.44
3232.91
3258.61
3283.88
3308.14
3330.6
3349.65
3364.7
3374.51
3377.01
3372.65
3370.5
3365.99
3353.04
3332.07
3304.14
3269.68
3227.63
3178.4
3121.37
3056.79
2984.43
2904.59
2817.28
2722.95
2621.87
2514.63
2401.86
2284.19
2161.92
2035.9
1907.55
1778.03
1647.8
1515.36
1380.17
1248.85
1126.49
980.66
762.304
2130.72
2131.25
2131.83
2132.47
2133.15
2133.84
2134.55
2135.3
2136.07
2136.87
2137.7
2138.55
2139.44
2140.35
2141.29
2142.24
2143.22
2144.21
2145.22
2146.26
2147.32
2148.4
2149.5
2150.64
2151.79
2152.98
2154.19
2155.44
2156.71
2158.02
2159.36
2160.73
2162.13
2163.57
2165.05
2166.56
2168.11
2169.71
2171.34
2173.01
2174.73
2176.5
2178.31
2180.16
2182.07
2184.03
2186.03
2188.09
2190.2
2192.37
2194.6
2196.88
2199.23
2201.63
2204.1
2206.63
2209.23
2211.9
2214.63
2217.44
2220.32
2223.28
2226.31
2229.42
2232.61
2235.88
2239.24
2242.68
2246.21
2249.83
2253.54
2257.35
2261.25
2265.25
2269.36
2273.56
2277.87
2282.29
2286.81
2291.45
2296.2
2301.07
2306.06
2311.17
2316.4
2321.76
2327.24
2332.86
2338.61
2344.5
2350.52
2356.69
2362.99
2369.45
2376.05
2382.81
2389.71
2396.77
2403.99
2411.37
2418.91
2426.62
2434.49
2442.53
2450.75
2459.13
2467.69
2476.43
2485.35
2494.45
2503.72
2513.18
2522.81
2532.61
2542.59
2552.76
2563.1
2573.62
2584.32
2595.2
2606.25
2617.49
2628.91
2640.5
2652.27
2664.21
2676.33
2688.63
2701.09
2713.73
2726.53
2739.51
2752.66
2765.98
2779.47
2793.14
2806.98
2821.01
2835.23
2849.65
2864.27
2879.1
2894.16
2909.46
2925.03
2940.87
2957.02
2973.47
2990.21
3007.31
3024.79
3042.74
3061.17
3080.16
3099.72
3119.92
3140.78
3162.37
3184.72
3207.83
3231.65
3256.12
3281.16
3306.64
3332.32
3357.42
3381.72
3403.91
3422.49
3437.34
3447.31
3450.32
3445.73
3445.11
3440.39
3424.85
3404.65
3376.16
3341.43
3298.93
3249.29
3191.78
3126.65
3053.6
2972.85
2884.4
2788.62
2685.8
2576.49
2461.29
2341
2215.89
2086.85
1955.1
1821.67
1686.76
1549.44
1410.96
1277.43
1149.25
1002.88
775.348
2211.06
2211.5
2212
2212.55
2213.13
2213.72
2214.34
2214.99
2215.67
2216.37
2217.1
2217.85
2218.64
2219.45
2220.29
2221.15
2222.02
2222.91
2223.81
2224.74
2225.69
2226.66
2227.65
2228.66
2229.7
2230.76
2231.85
2232.96
2234.11
2235.28
2236.48
2237.71
2238.98
2240.28
2241.62
2242.99
2244.39
2245.84
2247.33
2248.85
2250.42
2252.03
2253.69
2255.39
2257.14
2258.94
2260.79
2262.69
2264.64
2266.65
2268.71
2270.84
2273.02
2275.26
2277.57
2279.94
2282.38
2284.89
2287.46
2290.11
2292.83
2295.63
2298.5
2301.46
2304.5
2307.62
2310.83
2314.12
2317.51
2320.99
2324.56
2328.23
2332
2335.87
2339.85
2343.93
2348.13
2352.43
2356.85
2361.38
2366.04
2370.82
2375.72
2380.75
2385.9
2391.2
2396.62
2402.19
2407.89
2413.74
2419.74
2425.88
2432.18
2438.62
2445.23
2451.99
2458.92
2466.01
2473.26
2480.68
2488.28
2496.04
2503.98
2512.09
2520.38
2528.85
2537.5
2546.33
2555.34
2564.55
2573.94
2583.52
2593.29
2603.25
2613.39
2623.72
2634.24
2644.94
2655.82
2666.89
2678.13
2689.55
2701.14
2712.9
2724.84
2736.94
2749.2
2761.62
2774.21
2786.94
2799.83
2812.87
2826.06
2839.39
2852.87
2866.5
2880.28
2894.2
2908.29
2922.53
2936.93
2951.51
2966.29
2981.27
2996.47
3011.92
3027.64
3043.63
3059.9
3076.47
3093.44
3110.81
3128.7
3147.1
3166.12
3185.76
3206.11
3227.22
3249.11
3271.78
3295.2
3319.31
3344.07
3369.29
3394.58
3419.31
3443.09
3464.56
3482.6
3497.2
3507.36
3511.05
3506.88
3505.52
3501.44
3486.75
3466.99
3439.47
3405.26
3363.34
3313.87
3256.36
3190.82
3117.1
3035.3
2945.51
2848.03
2743.23
2631.62
2513.87
2390.72
2262.59
2130.2
1994.81
1857.3
1718.39
1577.74
1437.46
1301.8
1167.85
1020.92
789.425
2240.41
2240.96
2241.58
2242.24
2242.93
2243.64
2244.38
2245.15
2245.94
2246.77
2247.62
2248.51
2249.43
2250.37
2251.35
2252.35
2253.37
2254.4
2255.46
2256.54
2257.64
2258.77
2259.92
2261.1
2262.31
2263.54
2264.8
2266.09
2267.42
2268.77
2270.16
2271.59
2273.04
2274.54
2276.07
2277.64
2279.26
2280.91
2282.61
2284.35
2286.14
2287.98
2289.86
2291.79
2293.78
2295.81
2297.9
2300.05
2302.26
2304.52
2306.84
2309.23
2311.68
2314.19
2316.77
2319.42
2322.14
2324.93
2327.8
2330.74
2333.76
2336.86
2340.04
2343.31
2346.66
2350.1
2353.63
2357.25
2360.97
2364.78
2368.69
2372.7
2376.81
2381.03
2385.36
2389.8
2394.35
2399.02
2403.8
2408.7
2413.73
2418.88
2424.15
2429.56
2435.1
2440.78
2446.59
2452.55
2458.64
2464.89
2471.28
2477.82
2484.51
2491.36
2498.36
2505.53
2512.86
2520.36
2528.02
2535.85
2543.85
2552.03
2560.39
2568.92
2577.63
2586.51
2595.58
2604.82
2614.24
2623.84
2633.61
2643.57
2653.7
2664.01
2674.5
2685.17
2696.01
2707.02
2718.21
2729.56
2741.08
2752.77
2764.62
2776.62
2788.78
2801.08
2813.53
2826.12
2838.85
2851.71
2864.7
2877.82
2891.05
2904.4
2917.87
2931.46
2945.15
2958.97
2972.9
2986.95
3001.14
3015.46
3029.93
3044.58
3059.41
3074.45
3089.73
3105.26
3121.02
3137.08
3153.48
3170.3
3187.58
3205.41
3223.82
3242.91
3262.73
3283.33
3304.72
3326.93
3349.92
3373.67
3398.11
3422.95
3447.82
3472.16
3495.47
3516.3
3533.8
3548.19
3558.32
3562.53
3558.91
3557.43
3553.1
3538.62
3518.92
3491.53
3457.44
3415.61
3366.22
3308.67
3243
3168.91
3086.52
2995.82
2897.11
2790.71
2677.17
2557.14
2431.48
2300.53
2165.16
2026.87
1887.08
1747
1605.87
1461.7
1320.01
1187.03
1033.67
802.015
2301.15
2301.65
2302.21
2302.81
2303.44
2304.1
2304.78
2305.48
2306.22
2306.99
2307.78
2308.6
2309.46
2310.34
2311.26
2312.2
2313.16
2314.13
2315.13
2316.14
2317.18
2318.24
2319.33
2320.44
2321.57
2322.73
2323.92
2325.14
2326.38
2327.66
2328.97
2330.32
2331.7
2333.11
2334.57
2336.06
2337.59
2339.16
2340.77
2342.43
2344.13
2345.88
2347.68
2349.53
2351.43
2353.38
2355.38
2357.44
2359.56
2361.73
2363.97
2366.27
2368.63
2371.06
2373.55
2376.12
2378.75
2381.46
2384.25
2387.11
2390.05
2393.08
2396.18
2399.37
2402.65
2406.02
2409.48
2413.04
2416.69
2420.45
2424.3
2428.26
2432.33
2436.5
2440.79
2445.19
2449.71
2454.34
2459.1
2463.99
2469
2474.14
2479.41
2484.83
2490.37
2496.06
2501.9
2507.88
2514.01
2520.29
2526.72
2533.32
2540.07
2546.98
2554.06
2561.3
2568.71
2576.29
2584.05
2591.98
2600.09
2608.37
2616.84
2625.49
2634.33
2643.35
2652.56
2661.95
2671.53
2681.3
2691.25
2701.39
2711.71
2722.22
2732.9
2743.76
2754.8
2766.01
2777.39
2788.94
2800.64
2812.51
2824.52
2836.69
2848.99
2861.43
2874
2886.69
2899.5
2912.42
2925.45
2938.57
2951.79
2965.09
2978.48
2991.95
3005.5
3019.13
3032.83
3046.62
3060.49
3074.47
3088.55
3102.76
3117.12
3131.65
3146.37
3161.31
3176.47
3191.86
3207.59
3223.68
3240.23
3257.31
3275.02
3293.4
3312.52
3332.42
3353.15
3374.71
3397.1
3420.31
3444.18
3468.41
3492.71
3516.52
3538.99
3558.84
3575.88
3589.99
3600.21
3604.97
3601.99
3600.21
3596.07
3582.43
3563.32
3536.66
3503.08
3461.71
3412.53
3355.05
3289.16
3214.63
3131.49
3039.79
2939.75
2831.74
2716.29
2594.17
2466.21
2332.84
2194.93
2054.25
1912.89
1771.75
1627.32
1477.99
1334.5
1201.07
1046.29
811.209
2328.11
2328.69
2329.33
2330.02
2330.72
2331.46
2332.22
2333.01
2333.83
2334.69
2335.57
2336.49
2337.44
2338.42
2339.43
2340.47
2341.53
2342.62
2343.72
2344.84
2345.99
2347.17
2348.37
2349.6
2350.85
2352.13
2353.44
2354.79
2356.16
2357.57
2359.01
2360.49
2362.01
2363.56
2365.16
2366.79
2368.47
2370.19
2371.95
2373.76
2375.62
2377.53
2379.49
2381.5
2383.57
2385.69
2387.87
2390.1
2392.4
2394.76
2397.18
2399.66
2402.22
2404.84
2407.53
2410.3
2413.14
2416.06
2419.05
2422.13
2425.29
2428.53
2431.86
2435.28
2438.79
2442.39
2446.09
2449.88
2453.78
2457.78
2461.88
2466.09
2470.42
2474.85
2479.4
2484.07
2488.85
2493.77
2498.8
2503.97
2509.26
2514.69
2520.26
2525.96
2531.81
2537.8
2543.94
2550.23
2556.67
2563.27
2570.02
2576.94
2584.02
2591.27
2598.68
2606.27
2614.03
2621.96
2630.07
2638.36
2646.82
2655.46
2664.28
2673.29
2682.47
2691.83
2701.38
2711.11
2721.02
2731.12
2741.39
2751.85
2762.48
2773.29
2784.27
2795.43
2806.75
2818.24
2829.89
2841.7
2853.66
2865.76
2878
2890.37
2902.87
2915.48
2928.21
2941.03
2953.96
2966.96
2980.05
2993.2
3006.41
3019.68
3033
3046.36
3059.77
3073.21
3086.68
3100.2
3113.77
3127.39
3141.08
3154.85
3168.72
3182.72
3196.87
3211.2
3225.73
3240.47
3255.47
3270.82
3286.6
3302.93
3319.88
3337.52
3355.88
3375.04
3395.05
3415.91
3437.65
3460.21
3483.36
3507.02
3530.67
3553.77
3575.34
3594.34
3610.96
3624.8
3635.05
3640.24
3637.88
3635.95
3631.8
3618.71
3599.89
3573.67
3540.44
3499.44
3450.52
3393.2
3327.3
3252.55
3168.94
3076.47
2975.4
2866.06
2749.02
2625
2494.82
2359.02
2218.72
2076.28
1933.61
1789.14
1639.41
1490.58
1347.85
1213.24
1056.85
821.222
2374.96
2375.5
2376.11
2376.75
2377.42
2378.11
2378.84
2379.59
2380.37
2381.19
2382.03
2382.91
2383.81
2384.75
2385.73
2386.73
2387.75
2388.8
2389.86
2390.94
2392.05
2393.18
2394.34
2395.52
2396.72
2397.96
2399.22
2400.52
2401.84
2403.2
2404.6
2406.03
2407.49
2409
2410.54
2412.13
2413.76
2415.43
2417.15
2418.91
2420.72
2422.58
2424.5
2426.46
2428.48
2430.56
2432.69
2434.89
2437.14
2439.46
2441.84
2444.28
2446.8
2449.39
2452.04
2454.78
2457.59
2460.47
2463.44
2466.49
2469.62
2472.84
2476.15
2479.56
2483.05
2486.64
2490.33
2494.12
2498.01
2502.01
2506.12
2510.34
2514.67
2519.12
2523.69
2528.37
2533.19
2538.12