/*--------------------------------*- C++ -*----------------------------------*\
  =========                 |
  \\      /  F ield         | OpenFOAM: The Open Source CFD Toolbox
   \\    /   O peration     | Website:  https://openfoam.org
    \\  /    A nd           | Version:  7
     \\/     M anipulation  |
\*---------------------------------------------------------------------------*/
FoamFile
{
    version     2.0;
    format      ascii;
    class       volVectorField;
    location    "1";
    object      U;
}
// * * * * * * * * * * * * * * * * * * * * * * * * * * * * * * * * * * * * * //

dimensions      [0 1 -1 0 0 0 0];

internalField   nonuniform List<vector> 
76362
(
(64.1181 -43.3842 -7.50156e-17)
(64.1399 -43.396 3.73805e-17)
(64.1594 -43.4088 0)
(64.178 -43.4221 -3.96534e-17)
(64.197 -43.4358 4.05018e-17)
(64.2165 -43.4499 0)
(64.2363 -43.4645 0)
(64.2565 -43.4796 -4.34235e-17)
(64.277 -43.4951 6.72382e-21)
(64.2977 -43.5111 4.54258e-17)
(64.3188 -43.5277 0)
(64.3403 -43.5449 -4.61982e-17)
(64.3622 -43.5627 4.62593e-17)
(64.3846 -43.5811 0)
(64.4075 -43.6001 -4.62657e-17)
(64.4308 -43.6198 4.60042e-17)
(64.4547 -43.6403 0)
(64.4789 -43.6614 0)
(64.5038 -43.6832 0)
(64.529 -43.7058 -7.76898e-26)
(64.5549 -43.7292 -7.80657e-26)
(64.5812 -43.7534 0)
(64.6081 -43.7784 7.79784e-26)
(64.6354 -43.8042 7.77209e-26)
(64.6633 -43.8308 1.55756e-25)
(64.6917 -43.8584 0)
(64.7207 -43.8868 0)
(64.7502 -43.9162 0)
(64.7803 -43.9464 0)
(64.8109 -43.9776 0)
(64.8421 -44.0097 1.55326e-25)
(64.8738 -44.0428 1.55261e-25)
(64.9061 -44.0769 1.55192e-25)
(64.939 -44.1119 0)
(64.9724 -44.148 -4.54836e-17)
(65.0064 -44.1851 4.54602e-17)
(65.041 -44.2232 4.5381e-17)
(65.0762 -44.2625 -4.53563e-17)
(65.112 -44.3029 -4.52705e-17)
(65.1483 -44.3444 4.52444e-17)
(65.1852 -44.3871 -4.51517e-17)
(65.2227 -44.431 3.51114e-20)
(65.2608 -44.4761 4.50607e-17)
(65.2995 -44.5226 0)
(65.3387 -44.5705 0)
(65.3785 -44.6197 4.48154e-17)
(65.4189 -44.6704 -8.95254e-17)
(65.4598 -44.7227 8.93735e-17)
(65.5013 -44.7765 -4.46318e-17)
(65.5434 -44.832 3.06604e-25)
(65.586 -44.8892 -3.06284e-25)
(65.6291 -44.9482 -4.43303e-17)
(65.6727 -45.0092 4.42954e-17)
(65.7169 -45.072 6.10492e-25)
(65.7615 -45.1371 -6.09742e-25)
(65.8068 -45.2039 0)
(65.8521 -45.2737 -6.08161e-25)
(65.8984 -45.3447 0)
(65.9442 -45.4198 6.06353e-25)
(65.9908 -45.496 -6.06268e-25)
(66.0385 -45.5746 0)
(66.0834 -45.6599 -4.34448e-17)
(66.132 -45.7432 4.32422e-17)
(66.1808 -45.8312 0)
(66.228 -45.9244 -4.30083e-17)
(66.2776 -46.0177 4.32701e-17)
(66.3302 -46.1102 0)
(66.3795 -46.2142 0)
(66.4273 -46.3195 -1.19962e-24)
(66.4784 -46.4267 0)
(66.5308 -46.539 1.19771e-24)
(66.5826 -46.6527 0)
(66.6336 -46.7739 -1.18933e-24)
(66.6843 -46.8994 4.12585e-17)
(66.7296 -47.0327 -4.18848e-17)
(66.7792 -47.1639 1.1784e-24)
(66.8324 -47.2994 0)
(66.8848 -47.4434 0)
(66.935 -47.5931 0)
(66.981 -47.7482 0)
(67.0287 -47.9051 0)
(67.0752 -48.0761 -1.15099e-24)
(67.1231 -48.2439 -4.03516e-17)
(67.169 -48.4146 3.91671e-17)
(67.213 -48.603 -3.93387e-17)
(67.2562 -48.7893 1.89165e-19)
(67.2951 -48.9833 3.85906e-17)
(67.335 -49.1863 0)
(67.3745 -49.3966 -3.84195e-17)
(67.4099 -49.6161 2.12319e-19)
(67.4417 -49.8438 3.80134e-17)
(67.4713 -50.0806 0)
(67.4985 -50.3257 -3.73065e-17)
(67.5232 -50.5799 3.72722e-17)
(67.5446 -50.8426 0)
(67.5627 -51.1145 0)
(67.577 -51.3957 0)
(67.5876 -51.6869 4.31765e-24)
(67.5942 -51.9887 0)
(67.5964 -52.3019 0)
(67.5941 -52.6259 0)
(67.5874 -52.9609 4.21415e-24)
(67.5759 -53.3082 0)
(67.5586 -53.6664 3.38841e-17)
(67.5352 -54.036 -6.74645e-17)
(67.5076 -54.4143 6.67668e-17)
(67.4721 -54.804 -3.31954e-17)
(67.431 -55.2001 3.25012e-17)
(67.3803 -55.6048 -3.4684e-19)
(67.3217 -56.0134 -3.21136e-17)
(67.2492 -56.4341 3.13814e-17)
(67.1676 -56.8617 -3.13656e-17)
(67.0715 -57.308 0)
(66.9669 -57.7651 3.02996e-17)
(66.8466 -58.2439 -3.02945e-17)
(66.721 -58.7346 0)
(66.5759 -59.2535 2.89876e-17)
(66.4228 -59.7833 -5.75606e-17)
(66.2464 -60.3356 2.85737e-17)
(66.062 -60.896 -2.77118e-17)
(65.8521 -61.4796 2.77218e-17)
(65.6339 -62.0712 0)
(65.3875 -62.6872 -2.63779e-17)
(65.1328 -63.31 2.64012e-17)
(64.8463 -63.9599 -2.54611e-17)
(64.5536 -64.612 2.54902e-17)
(64.2211 -65.2972 0)
(63.8786 -65.9814 2.40358e-17)
(63.4763 -66.7073 -2.45702e-17)
(63.1099 -67.3956 0)
(62.6588 -68.1811 0)
(62.2161 -68.9426 0)
(61.687 -69.7559 -1.37636e-23)
(61.2271 -70.5036 -1.31654e-23)
(60.6455 -71.3699 -2.03978e-17)
(60.1076 -72.1613 6.27049e-19)
(59.4774 -72.9927 6.50269e-19)
(58.8386 -73.7954 1.93167e-17)
(58.1923 -74.5805 -1.26441e-23)
(57.4187 -75.4404 -1.27803e-23)
(56.7496 -76.2246 -1.65164e-17)
(55.7048 -77.2061 3.47438e-17)
(55.0898 -77.8913 -7.03327e-19)
(53.7443 -78.9845 -1.68875e-17)
(53.278 -79.4889 0)
(51.3839 -80.8972 2.01279e-17)
(50.517 -81.3976 -1.05762e-17)
(48.9465 -82.3032 1.50619e-17)
(47.6111 -82.9599 -1.54664e-17)
(46.2543 -83.6282 1.9478e-23)
(44.7119 -84.2447 0)
(42.9875 -84.9339 1.08346e-17)
(41.3814 -85.5235 -1.2502e-17)
(39.4543 -86.1923 -1.04341e-17)
(37.7542 -86.6881 1.10514e-17)
(35.6609 -87.2912 0)
(33.6462 -87.8007 9.79749e-18)
(31.5288 -88.3229 -6.57013e-19)
(29.2015 -88.8616 -1.00712e-17)
(26.8646 -89.3185 9.5275e-18)
(24.3387 -89.7311 -9.40485e-18)
(21.7745 -90.0424 0)
(18.9835 -90.403 9.54739e-18)
(15.9961 -90.7015 -2.09474e-17)
(12.8044 -91.1006 2.21339e-17)
(9.32096 -91.2004 -2.1819e-17)
(5.46292 -90.9624 -7.92623e-19)
(1.31927 -90.125 1.1115e-17)
(-3.11317 -88.5567 -1.03184e-17)
(-7.10642 -87.6752 1.09642e-17)
(-12.7924 -87.03 -1.26866e-17)
(-18.0404 -86.8809 1.10483e-17)
(-24.0356 -86.7461 -1.32209e-17)
(-30.3277 -86.4859 2.52751e-17)
(-36.9662 -86.0664 -1.21652e-17)
(-43.9373 -85.3828 0)
(-50.8912 -84.5786 1.02466e-22)
(-58.2771 -83.5036 0)
(-65.5085 -82.0928 9.45403e-23)
(-72.5296 -80.4558 1.38827e-17)
(-79.461 -78.4684 3.79571e-19)
(-85.755 -76.3962 -1.32215e-17)
(-92.2552 -73.9146 -5.92794e-18)
(-97.7234 -71.4992 6.39528e-18)
(-103.359 -68.9493 -5.24253e-18)
(-107.91 -66.4051 1.08523e-19)
(-112.88 -63.3614 4.71675e-18)
(-116.357 -60.8002 0)
(-120.405 -57.8258 3.7564e-18)
(-122.682 -55.6466 -6.03161e-18)
(-126.105 -52.7634 0)
(-127.727 -50.7493 1.45585e-22)
(-130.765 -47.9238 7.16658e-23)
(-131.79 -46.0212 -1.37976e-22)
(-134.325 -43.4894 -1.62708e-18)
(-135.078 -40.3945 1.13645e-18)
(-135.451 -39.7198 0)
(-136.896 -36.4363 5.66245e-23)
(-136.493 -35.1603 0)
(-136.706 -33.5342 -5.49522e-19)
(-137.23 -31.7742 9.7001e-19)
(-135.272 -28.2749 0)
(70.9256 -22.9034 -2.62595e-18)
(70.9015 -22.9277 2.64079e-18)
(70.8779 -22.9537 5.3246e-26)
(70.8553 -22.9802 3.54773e-26)
(70.8324 -23.0072 -2.91376e-18)
(70.8089 -23.0349 2.9116e-18)
(70.7849 -23.0632 -5.53822e-26)
(70.7605 -23.0923 -5.54198e-26)
(70.7358 -23.122 2.87313e-18)
(70.7106 -23.1524 -5.73762e-18)
(70.6849 -23.1835 2.86448e-18)
(70.6588 -23.2153 7.23934e-26)
(70.6322 -23.2479 2.83059e-18)
(70.6051 -23.2813 -2.83214e-18)
(70.5775 -23.3154 2.80747e-18)
(70.5494 -23.3503 -2.80901e-18)
(70.5208 -23.386 -1.11506e-25)
(70.4916 -23.4226 0)
(70.4619 -23.4601 1.11653e-25)
(70.4317 -23.4984 7.27937e-26)
(70.4009 -23.5376 2.72997e-18)
(70.3695 -23.5777 -5.44724e-18)
(70.3376 -23.6189 2.71727e-18)
(70.3051 -23.6609 2.68603e-18)
(70.2721 -23.7041 -5.35805e-18)
(70.2384 -23.7482 1.75051e-20)
(70.2042 -23.7934 2.65603e-18)
(70.1694 -23.8397 2.24633e-25)
(70.1339 -23.8872 0)
(70.0979 -23.9357 0)
(70.0613 -23.9855 2.56701e-18)
(70.024 -24.0364 -2.56851e-18)
(69.9861 -24.0886 -1.4681e-25)
(69.9477 -24.142 0)
(69.9085 -24.1967 2.48692e-18)
(69.8688 -24.2526 -2.4884e-18)
(69.8285 -24.3099 0)
(69.7875 -24.3685 0)
(69.7458 -24.4284 2.39659e-18)
(69.7036 -24.4897 -4.77032e-18)
(69.6607 -24.5524 2.37371e-18)
(69.6172 -24.6166 0)
(69.573 -24.6821 -2.29482e-18)
(69.5282 -24.7491 2.29623e-18)
(69.4828 -24.8176 -4.54303e-25)
(69.4368 -24.8877 2.21022e-18)
(69.3901 -24.9593 -2.21159e-18)
(69.3428 -25.0325 0)
(69.2949 -25.1073 -2.11793e-18)
(69.2464 -25.1839 2.11926e-18)
(69.1972 -25.2622 2.96226e-25)
(69.1476 -25.3421 2.01746e-18)
(69.097 -25.4245 -2.01873e-18)
(69.0466 -25.5076 -1.94569e-18)
(68.9943 -25.5951 1.94691e-18)
(68.9437 -25.68 0)
(68.8889 -25.7757 5.93297e-25)
(68.8392 -25.858 9.1567e-25)
(68.7817 -25.9702 -6.37951e-25)
(68.7316 -26.0525 5.54601e-25)
(68.6832 -26.1492 -1.67097e-18)
(68.6173 -26.2927 2.15264e-18)
(68.5788 -26.3448 4.84883e-25)
(68.5035 -26.518 0)
(68.4598 -26.6353 7.33684e-25)
(68.4077 -26.7335 -1.16225e-18)
(68.3539 -26.7905 1.19449e-18)
(68.2714 -27.0033 0)
(68.2285 -27.1228 9.62719e-25)
(68.1807 -27.2194 9.71428e-19)
(68.0998 -27.3879 -7.21942e-20)
(68.0526 -27.4976 -4.99686e-20)
(67.9893 -27.6447 -1.15628e-18)
(67.9398 -27.7871 9.82167e-25)
(67.8597 -28.0215 -1.20662e-18)
(67.8056 -28.1596 7.70608e-19)
(67.7415 -28.303 -1.55221e-24)
(67.6805 -28.4497 5.73939e-19)
(67.625 -28.6077 -5.36557e-19)
(67.5463 -28.8295 0)
(67.5117 -28.9564 3.5234e-19)
(67.435 -29.207 -3.99634e-19)
(67.3804 -29.37 -1.8396e-24)
(67.2933 -29.6383 2.00787e-24)
(67.241 -29.7915 1.59693e-24)
(67.1826 -29.9459 9.66438e-21)
(67.0942 -30.2327 -1.4555e-20)
(67.0408 -30.3549 0)
(66.9713 -30.5372 -5.19732e-24)
(66.8984 -30.7655 0)
(66.8252 -31.0184 0)
(66.7566 -31.263 -5.09017e-19)
(66.6845 -31.5264 5.33329e-19)
(66.6142 -31.791 0)
(66.5411 -32.0733 3.68538e-24)
(66.4682 -32.3576 0)
(66.39 -32.6539 3.70427e-24)
(66.3083 -32.959 -1.20098e-23)
(66.2262 -33.2745 -7.36087e-24)
(66.1454 -33.6014 -7.17218e-24)
(66.0649 -33.9395 -1.45489e-18)
(65.9791 -34.2942 1.48516e-18)
(65.8849 -34.6657 0)
(65.7863 -35.0543 0)
(65.6896 -35.4419 -1.96623e-18)
(65.5893 -35.842 4.09398e-18)
(65.4816 -36.2601 1.43628e-19)
(65.3745 -36.6778 1.42781e-19)
(65.2653 -37.0966 -2.42564e-18)
(65.1516 -37.5128 7.1603e-24)
(65.0252 -37.9373 -7.14724e-24)
(64.8855 -38.3786 -8.80945e-24)
(64.7442 -38.8067 2.97107e-18)
(64.5866 -39.2919 -3.26913e-18)
(64.427 -39.7742 3.33465e-18)
(64.2555 -40.2991 -3.53679e-18)
(64.0798 -40.8346 3.67984e-18)
(63.8929 -41.4073 -3.73786e-18)
(63.6914 -42.0102 8.09419e-24)
(63.4849 -42.6137 0)
(63.2574 -43.2566 0)
(63.0262 -43.8979 0)
(62.7733 -44.5852 5.07189e-18)
(62.5155 -45.2729 -9.98957e-18)
(62.2386 -45.9995 5.24496e-18)
(61.9515 -46.7402 0)
(61.6371 -47.5217 2.86646e-23)
(61.3057 -48.3084 2.87602e-23)
(60.9259 -49.1453 0)
(60.579 -49.9329 6.59325e-18)
(60.1288 -50.8648 2.571e-19)
(59.7395 -51.7503 -1.40807e-17)
(59.2127 -52.7723 7.29511e-18)
(58.809 -53.6489 1.45378e-23)
(58.2173 -54.7563 -7.81601e-18)
(57.7495 -55.7018 8.09471e-18)
(57.0844 -56.7704 1.77705e-23)
(56.5092 -57.7485 0)
(55.8001 -58.8593 1.49387e-23)
(55.2561 -59.6876 -1.06562e-17)
(54.2829 -60.8083 2.27171e-17)
(53.6356 -61.6285 -2.22807e-17)
(52.6421 -62.733 2.42164e-17)
(51.8517 -63.6655 -1.18232e-17)
(50.7566 -64.6958 8.1725e-23)
(49.7245 -65.6647 1.28927e-17)
(48.5945 -66.5684 -1.36169e-17)
(47.0688 -67.7315 -3.27312e-23)
(46.1267 -68.4548 0)
(44.2672 -69.7041 6.17647e-23)
(43.2278 -70.4163 0)
(41.1643 -71.7165 -9.73191e-23)
(39.9451 -72.5029 1.65081e-17)
(37.8216 -73.6897 2.30828e-19)
(36.4138 -74.4718 -1.72184e-17)
(34.1934 -75.5943 -1.03661e-22)
(32.3554 -76.4821 -2.00549e-17)
(30.2679 -77.3848 4.23309e-17)
(27.9971 -78.2867 2.3148e-19)
(25.7842 -79.1232 -2.51945e-17)
(23.1817 -79.9222 2.43163e-22)
(20.9264 -80.6387 0)
(18.2543 -81.1924 -2.30949e-22)
(15.6747 -81.8705 -2.48518e-17)
(12.83 -82.163 2.37478e-17)
(10.0567 -82.6301 0)
(6.99747 -82.4717 3.06756e-17)
(4.07471 -81.1049 -5.27304e-17)
(0.942271 -79.6786 3.00282e-17)
(-2.48967 -77.5005 2.68791e-17)
(-5.66476 -76.0595 9.99187e-19)
(-9.18089 -74.9061 -2.93959e-17)
(-12.8385 -73.6153 -1.83438e-22)
(-16.6261 -72.101 2.83447e-17)
(-20.307 -70.3607 -5.29477e-17)
(-24.106 -68.3864 -2.58514e-19)
(-27.348 -66.414 2.46552e-17)
(-30.614 -64.3344 0)
(-34.3476 -61.7714 2.2224e-22)
(-37.2282 -59.4761 -1.12272e-17)
(-40.2861 -56.9072 1.87817e-17)
(-42.6798 -54.6952 -2.29932e-17)
(-45.6901 -51.7607 8.25767e-18)
(-48.2296 -49.1997 -8.06316e-18)
(-50.0044 -47.3136 8.26346e-18)
(-51.8121 -45.3836 0)
(-54.522 -42.0301 0)
(-56.2469 -39.8191 0)
(-57.9382 -37.5705 7.15489e-18)
(-59.6823 -35.6826 -6.50221e-18)
(-61.1344 -34.0182 0)
(-62.7191 -32.1296 -2.1428e-22)
(-64.1111 -30.2375 5.48282e-18)
(-65.4376 -28.6316 -2.70266e-18)
(-66.6792 -27.407 -1.40098e-19)
(-67.8341 -25.6919 -5.03637e-18)
(-68.6486 -24.9003 2.37911e-18)
(-69.6357 -22.8237 9.39374e-19)
(-70.4185 -22.5406 -8.9231e-20)
(-71.2996 -21.8759 -6.81164e-19)
(-71.8112 -21.2621 -6.33924e-22)
(-72.1852 -20.0045 2.21258e-22)
(67.5345 -36.6251 -6.57903e-26)
(67.5436 -36.634 0)
(67.5505 -36.6445 3.21423e-17)
(67.5556 -36.6554 -6.03077e-21)
(67.5609 -36.6667 -6.68575e-17)
(67.5664 -36.6781 6.82915e-21)
(67.572 -36.6899 3.51813e-17)
(67.5777 -36.7021 -3.55703e-17)
(67.5833 -36.7146 7.11525e-17)
(67.589 -36.7275 -3.55695e-17)
(67.5948 -36.7407 0)
(67.6007 -36.7544 3.55478e-17)
(67.6066 -36.7686 -3.55531e-17)
(67.6125 -36.7831 3.16003e-25)
(67.6185 -36.7981 1.24403e-25)
(67.6246 -36.8135 0)
(67.6307 -36.8294 1.24442e-25)
(67.6368 -36.8458 0)
(67.643 -36.8627 -5.08068e-25)
(67.6492 -36.88 0)
(67.6554 -36.8979 0)
(67.6617 -36.9163 0)
(67.6679 -36.9352 1.24527e-25)
(67.6742 -36.9547 -2.49074e-25)
(67.6804 -36.9747 -3.83934e-25)
(67.6867 -36.9953 -3.83983e-25)
(67.693 -37.0166 -2.49121e-25)
(67.6992 -37.0384 -2.49132e-25)
(67.7054 -37.0609 0)
(67.7116 -37.084 0)
(67.7178 -37.1078 0)
(67.7239 -37.1322 -2.49152e-25)
(67.7299 -37.1574 0)
(67.7359 -37.1834 0)
(67.7418 -37.2101 3.52077e-17)
(67.7476 -37.2375 -3.52044e-17)
(67.7532 -37.2658 3.51566e-17)
(67.7588 -37.2949 -3.51528e-17)
(67.7642 -37.3249 3.51014e-17)
(67.7695 -37.3557 -3.50973e-17)
(67.7746 -37.3875 0)
(67.7795 -37.4203 0)
(67.7842 -37.454 0)
(67.7887 -37.4887 -4.9798e-25)
(67.793 -37.5245 -3.49101e-17)
(67.797 -37.5615 3.4905e-17)
(67.8007 -37.5995 4.97789e-25)
(67.8041 -37.6387 -3.47987e-17)
(67.8072 -37.6791 3.47932e-17)
(67.8099 -37.7208 0)
(67.8123 -37.7638 1.53836e-24)
(67.8143 -37.8081 0)
(67.8158 -37.8538 4.97253e-25)
(67.8169 -37.9009 -3.45412e-17)
(67.8174 -37.9496 3.45351e-17)
(67.8175 -37.9996 0)
(67.8169 -38.0514 1.53893e-24)
(67.8159 -38.1047 -9.93043e-25)
(67.8136 -38.1598 1.54181e-24)
(67.8107 -38.2171 -1.53542e-24)
(67.8081 -38.2743 0)
(67.8008 -38.338 -2.13332e-24)
(67.7963 -38.3999 0)
(67.7926 -38.4625 0)
(67.7823 -38.5314 -3.4689e-17)
(67.7735 -38.6018 3.47942e-17)
(67.7679 -38.6703 -9.46077e-25)
(67.7597 -38.7424 -3.37374e-17)
(67.7455 -38.8218 6.86923e-17)
(67.7354 -38.9004 -6.82341e-17)
(67.7254 -38.9801 7.25942e-20)
(67.7129 -39.0622 3.35019e-17)
(67.6969 -39.1515 -3.33389e-17)
(67.6823 -39.2369 8.54443e-20)
(67.6575 -39.336 3.49269e-17)
(67.6338 -39.4307 -5.88544e-24)
(67.6159 -39.5271 -3.2889e-17)
(67.5925 -39.6324 3.2972e-17)
(67.567 -39.738 1.97051e-24)
(67.5365 -39.8479 -6.13896e-24)
(67.5063 -39.9625 -6.13866e-24)
(67.4697 -40.0846 0)
(67.4302 -40.2086 1.98892e-24)
(67.394 -40.326 -3.75254e-24)
(67.3491 -40.4618 0)
(67.3044 -40.5966 3.19541e-17)
(67.2562 -40.7355 -3.13237e-17)
(67.2068 -40.8804 0)
(67.1614 -41.0285 3.88685e-24)
(67.1082 -41.1857 1.22963e-23)
(67.0547 -41.3398 0)
(66.9975 -41.5014 3.13098e-17)
(66.9314 -41.6738 -3.13093e-17)
(66.8628 -41.85 0)
(66.789 -42.0351 -3.09087e-17)
(66.705 -42.2312 3.30497e-17)
(66.6233 -42.4189 2.99642e-17)
(66.5416 -42.6181 -1.43978e-19)
(66.4499 -42.8405 -3.04948e-17)
(66.3583 -43.0584 2.00136e-23)
(66.2578 -43.2892 0)
(66.1454 -43.5359 2.98776e-17)
(66.0238 -43.7897 -3.31491e-17)
(65.9077 -44.0284 -1.19689e-23)
(65.7929 -44.2801 3.03504e-23)
(65.6634 -44.5696 2.42846e-23)
(65.524 -44.8764 7.66663e-24)
(65.3768 -45.1941 0)
(65.206 -45.5278 -7.64585e-24)
(65.0053 -45.8776 -1.0465e-23)
(64.8612 -46.0985 6.94838e-24)
(64.7094 -46.3599 -2.3904e-17)
(64.5157 -46.7065 2.22616e-19)
(64.34 -47.0199 2.87827e-17)
(64.1504 -47.3629 2.61268e-17)
(63.9601 -47.7266 -2.66001e-17)
(63.7496 -48.1289 9.37405e-24)
(63.5236 -48.5462 -2.69684e-17)
(63.2769 -48.984 2.88864e-17)
(63.0458 -49.3966 2.59978e-17)
(62.7921 -49.8552 -2.57055e-17)
(62.5226 -50.3441 2.68084e-17)
(62.2457 -50.8355 -1.90581e-19)
(61.9484 -51.3538 -2.63372e-17)
(61.6363 -51.876 0)
(61.2961 -52.4213 0)
(60.8966 -53.0077 2.58725e-17)
(60.4545 -53.609 -6.4494e-17)
(60.0725 -54.0844 2.41708e-17)
(59.7358 -54.5765 0)
(59.1531 -55.3342 0)
(58.74 -55.8752 -2.6273e-17)
(58.065 -56.6393 7.98828e-20)
(57.7647 -57.0461 2.36535e-17)
(56.781 -58.1721 4.03034e-17)
(56.2132 -58.6724 -4.268e-17)
(55.6897 -59.0517 4.53688e-17)
(54.5482 -60.0783 6.56477e-20)
(53.7676 -60.7095 -2.20378e-17)
(52.8624 -61.3645 3.08573e-23)
(51.7099 -62.1774 3.14772e-23)
(50.945 -62.709 -1.03002e-22)
(49.6216 -63.701 0)
(48.6193 -64.3279 -9.84657e-23)
(47.4462 -64.9261 2.33481e-17)
(46.2372 -65.4638 3.60029e-20)
(44.8566 -66.0923 -2.61059e-17)
(43.6713 -66.7161 1.11592e-22)
(42.0843 -67.6102 2.50877e-22)
(41.0084 -68.0751 -7.15803e-23)
(39.5524 -68.7543 2.73563e-17)
(37.8855 -69.5992 -3.1107e-17)
(36.2499 -70.3247 2.77462e-17)
(34.9246 -70.7519 1.98315e-19)
(33.24 -71.4223 -2.95719e-17)
(31.3072 -72.2554 -3.61413e-17)
(29.7928 -72.7912 2.79554e-17)
(27.9497 -73.2931 -2.68844e-22)
(26.0328 -73.792 0)
(23.9955 -74.303 0)
(22.0274 -74.8742 -2.09821e-22)
(19.7824 -75.2979 0)
(17.4546 -75.8598 -4.33571e-22)
(15.2429 -76.0822 0)
(12.6211 -76.5811 -2.54211e-22)
(10.0653 -76.4149 0)
(7.25235 -76.1762 0)
(4.28425 -75.5402 8.52722e-22)
(1.27398 -73.5351 2.44115e-22)
(-1.74426 -72.0184 -7.70153e-22)
(-4.8962 -70.5253 0)
(-7.79979 -69.4698 0)
(-10.7772 -68.71 3.59726e-17)
(-13.8896 -67.9029 4.26714e-19)
(-16.5942 -67.1361 -3.14289e-17)
(-19.8301 -66.1972 0)
(-22.6699 -65.269 4.31387e-22)
(-24.7854 -64.4541 -1.63771e-17)
(-28.8102 -62.7665 1.06254e-17)
(-30.7848 -61.8169 1.33963e-17)
(-33.7513 -60.1214 -1.16706e-17)
(-36.128 -58.6437 0)
(-38.8385 -56.7899 0)
(-42.2893 -54.0773 8.67932e-18)
(-43.9134 -52.6943 -1.02633e-17)
(-46.1769 -50.9079 6.31108e-22)
(-48.0529 -49.1495 7.71495e-22)
(-50.9022 -46.3826 0)
(-52.0631 -45.2456 0)
(-54.648 -42.2573 0)
(-55.834 -40.9631 0)
(-57.7463 -38.9951 0)
(-59.4017 -37.0475 0)
(-60.8736 -35.3266 0)
(-62.3622 -33.5167 3.07828e-18)
(-63.8817 -31.7344 -5.57846e-18)
(-65.1847 -30.2883 2.86349e-18)
(-66.3648 -28.823 1.31764e-18)
(-67.5363 -27.1147 -1.1731e-18)
(-68.5347 -26.2411 5.48571e-22)
(-69.5505 -24.8466 -7.93951e-23)
(-70.1789 -24.0934 -2.36923e-22)
(68.0206 -24.9214 1.45105e-17)
(68.0012 -24.9478 -7.45906e-18)
(67.9816 -24.9748 1.75771e-25)
(67.9618 -25.0024 -3.6409e-25)
(67.9415 -25.0306 -1.84054e-25)
(67.9208 -25.0594 0)
(67.8998 -25.0889 -3.89417e-25)
(67.8783 -25.119 1.92571e-25)
(67.8564 -25.1499 1.97268e-25)
(67.8341 -25.1816 3.90287e-25)
(67.8113 -25.214 0)
(67.7879 -25.2472 -8.44531e-18)
(67.7641 -25.2812 8.4498e-18)
(67.7398 -25.316 8.47072e-18)
(67.715 -25.3517 -8.47524e-18)
(67.6896 -25.3882 -8.49706e-18)
(67.6638 -25.4256 8.5016e-18)
(67.6374 -25.4639 -3.88365e-25)
(67.6104 -25.5031 3.97212e-25)
(67.5829 -25.5432 3.89048e-25)
(67.5548 -25.5843 3.89395e-25)
(67.5262 -25.6263 0)
(67.4969 -25.6693 -8.59767e-18)
(67.4671 -25.7134 8.60236e-18)
(67.4366 -25.7584 8.05682e-27)
(67.4056 -25.8044 -8.64544e-18)
(67.3739 -25.8515 8.65028e-18)
(67.3416 -25.8996 0)
(67.3087 -25.9489 -7.84682e-25)
(67.2752 -25.9992 7.85469e-25)
(67.241 -26.0506 0)
(67.2061 -26.1032 0)
(67.1706 -26.1569 0)
(67.1343 -26.2119 0)
(67.0975 -26.268 0)
(67.0599 -26.3253 0)
(67.0216 -26.384 1.76998e-17)
(66.9826 -26.4439 -1.77105e-17)
(66.9428 -26.505 0)
(66.9021 -26.5676 8.06676e-25)
(66.8608 -26.6315 0)
(66.8188 -26.6968 0)
(66.776 -26.7635 0)
(66.7323 -26.8317 0)
(66.6877 -26.9014 -1.80716e-17)
(66.6425 -26.9728 3.62067e-17)
(66.5965 -27.0457 -1.81349e-17)
(66.5498 -27.1203 -1.60407e-24)
(66.5025 -27.1966 1.82857e-17)
(66.4545 -27.2745 -1.82977e-17)
(66.4054 -27.3543 -1.6278e-24)
(66.355 -27.4356 1.84609e-17)
(66.304 -27.5193 -1.84729e-17)
(66.2523 -27.6045 -1.63197e-24)
(66.1997 -27.6916 -3.23933e-24)
(66.1456 -27.7815 0)
(66.0911 -27.8709 -1.63627e-24)
(66.0348 -27.9678 0)
(65.978 -28.0629 -1.59981e-24)
(65.9249 -28.1512 -1.62362e-24)
(65.8617 -28.2711 0)
(65.8047 -28.3684 1.19369e-26)
(65.7487 -28.4553 1.82706e-17)
(65.6811 -28.5829 -2.08613e-17)
(65.6191 -28.6916 -1.87652e-17)
(65.5669 -28.7686 1.85855e-17)
(65.4846 -28.9657 0)
(65.4349 -29.0804 0)
(65.3762 -29.1867 2.7918e-24)
(65.3163 -29.2749 8.22439e-24)
(65.2126 -29.4696 2.38253e-17)
(65.1555 -29.5973 -1.62653e-17)
(65.0928 -29.7166 5.78548e-24)
(65.0329 -29.8085 -1.65568e-17)
(64.9212 -30.0257 2.41851e-17)
(64.8571 -30.1703 1.69284e-17)
(64.7906 -30.3037 7.20626e-20)
(64.7132 -30.4643 -1.75876e-17)
(64.6403 -30.6307 0)
(64.5642 -30.7849 5.81722e-24)
(64.4921 -30.9196 -1.46612e-17)
(64.3825 -31.1294 -1.77359e-19)
(64.286 -31.3235 -1.25348e-19)
(64.2165 -31.4708 1.52037e-17)
(64.1433 -31.6475 2.01058e-17)
(64.0383 -31.8956 -2.84608e-17)
(63.9642 -32.0709 1.75811e-17)
(63.8685 -32.3134 -3.04917e-17)
(63.8082 -32.4939 -1.71881e-17)
(63.677 -32.812 6.50959e-17)
(63.5918 -32.974 -1.93342e-17)
(63.4999 -33.1381 0)
(63.3668 -33.4632 -3.69821e-17)
(63.2957 -33.6003 -9.45258e-20)
(63.203 -33.8059 3.9529e-17)
(63.0771 -34.0898 -2.33956e-17)
(62.957 -34.3727 -2.75417e-17)
(62.8566 -34.6302 2.16197e-17)
(62.7572 -34.9213 2.1388e-17)
(62.6526 -35.2204 1.40484e-19)
(62.5316 -35.5423 -2.37175e-17)
(62.3999 -35.8842 -1.35093e-23)
(62.273 -36.1939 2.80036e-17)
(62.1511 -36.4676 -2.46166e-17)
(62.0247 -36.7451 -2.27792e-17)
(61.8771 -37.0848 2.46039e-17)
(61.7276 -37.4669 2.39857e-17)
(61.5962 -37.8459 -2.38047e-17)
(61.4431 -38.2587 2.52476e-17)
(61.2955 -38.6515 -2.52686e-17)
(61.1186 -39.0786 0)
(60.9605 -39.4756 0)
(60.7761 -39.895 0)
(60.6031 -40.267 2.77096e-23)
(60.3644 -40.7542 -3.77671e-23)
(60.2229 -41.0908 -2.40653e-17)
(60.0318 -41.5361 2.79063e-17)
(59.8206 -42.0251 2.9312e-17)
(59.6181 -42.5019 -2.75943e-17)
(59.4083 -42.9797 -1.21123e-22)
(59.169 -43.4865 7.78273e-24)
(58.9157 -43.9899 5.70495e-23)
(58.6364 -44.5271 -2.94941e-17)
(58.3667 -45.0485 2.95226e-17)
(58.0486 -45.5914 0)
(57.7183 -46.116 -6.7242e-23)
(57.3332 -46.702 -3.00956e-17)
(56.9831 -47.241 3.05752e-17)
(56.534 -47.8679 3.10458e-17)
(56.1494 -48.3919 1.9218e-19)
(55.6031 -49.0646 -3.36819e-17)
(55.1963 -49.5736 -2.99903e-17)
(54.6016 -50.2818 6.76944e-17)
(54.0643 -50.9258 1.30681e-19)
(53.4118 -51.7099 -3.99889e-17)
(52.8572 -52.2634 -2.16834e-23)
(52.1311 -52.891 -3.33376e-17)
(51.4825 -53.5088 3.15217e-17)
(50.7537 -54.1161 -2.93154e-17)
(50.2337 -54.4335 2.80746e-17)
(48.9156 -55.544 0)
(48.2291 -56.1456 1.20616e-22)
(47.6436 -56.6236 2.24372e-22)
(46.3576 -57.6853 1.81714e-22)
(45.4818 -58.3486 1.33571e-22)
(44.5751 -58.9331 1.18693e-22)
(43.1616 -59.8317 4.49459e-17)
(42.2333 -60.5006 -3.66433e-17)
(41.1552 -61.272 -2.75102e-22)
(40.0857 -61.9308 0)
(38.7955 -62.6559 5.6372e-23)
(37.2854 -63.5659 -3.35331e-22)
(35.8265 -64.3522 4.6687e-17)
(34.6281 -64.8986 5.06483e-19)
(33.013 -65.5861 -4.40813e-17)
(31.321 -66.4126 0)
(29.4496 -67.1648 -5.64948e-17)
(27.9074 -67.7223 4.00258e-17)
(25.9201 -68.2884 0)
(24.1426 -68.8527 0)
(21.9665 -69.31 0)
(20.1214 -69.82 0)
(17.6841 -70.1296 7.61151e-22)
(15.6788 -70.6084 0)
(13.113 -70.578 0)
(10.7766 -70.9667 -6.88648e-17)
(8.15499 -70.7419 7.25934e-17)
(5.57919 -69.3991 -2.92551e-17)
(2.7643 -68.1914 3.54394e-17)
(-0.143792 -65.8778 -2.78999e-17)
(-3.06263 -64.4675 -2.17051e-19)
(-6.21637 -63.5021 -2.10888e-19)
(-9.49027 -62.6681 5.0923e-17)
(-12.9204 -61.7586 -2.38149e-17)
(-15.8824 -60.8386 0)
(-19.1803 -59.7372 0)
(-22.617 -58.4152 -5.22165e-22)
(-25.7783 -56.9953 -1.96513e-17)
(-28.4891 -55.6682 3.19607e-19)
(-31.7335 -54.0403 1.64029e-19)
(-34.0838 -52.5539 2.43739e-17)
(-38.0716 -49.8819 1.16531e-21)
(-39.9051 -48.5544 1.10585e-21)
(-42.8084 -46.4372 0)
(-45.154 -44.7131 8.1703e-22)
(-47.5619 -42.7848 -8.08772e-22)
(-49.8652 -40.6803 1.00929e-21)
(-51.6383 -39.0361 1.21465e-17)
(-53.8298 -36.8744 -5.30819e-19)
(-55.475 -35.2737 -1.14755e-17)
(-57.3269 -33.4218 0)
(-58.9139 -31.8664 0)
(-60.4776 -30.233 -4.43834e-18)
(-61.9101 -28.7929 2.67258e-19)
(-63.2212 -27.572 4.06763e-18)
(-64.4702 -26.377 8.64752e-22)
(-65.6904 -25.2819 0)
(-66.8681 -24.0745 0)
(-67.8403 -23.5105 0)
(-68.7949 -22.6477 -6.6857e-19)
(-69.6836 -21.8297 8.73479e-19)
(-71.1418 -21.1521 -1.91191e-19)
(65.9498 -31.5924 -8.93192e-18)
(65.9485 -31.599 -1.60302e-25)
(65.9452 -31.6084 -1.8444e-25)
(65.9413 -31.6181 1.86198e-25)
(65.9374 -31.628 4.17745e-25)
(65.9334 -31.6381 0)
(65.9292 -31.6485 -1.79742e-17)
(65.9249 -31.6592 -3.2958e-22)
(65.9205 -31.6704 1.88122e-17)
(65.9157 -31.6826 -6.71202e-25)
(65.9113 -31.6936 0)
(65.9062 -31.7068 4.83118e-25)
(65.9015 -31.7184 4.52546e-25)
(65.8961 -31.7326 1.81485e-17)
(65.8911 -31.7448 -1.63769e-17)
(65.8853 -31.7601 0)
(65.88 -31.773 1.61848e-17)
(65.8738 -31.7893 -3.25458e-22)
(65.8679 -31.803 -1.62905e-17)
(65.8615 -31.8189 -4.23256e-25)
(65.8547 -31.8371 -4.46569e-25)
(65.8485 -31.852 8.60629e-25)
(65.8412 -31.8717 -1.55976e-24)
(65.8345 -31.8876 0)
(65.8269 -31.908 1.7012e-24)
(65.8195 -31.9253 -1.63052e-17)
(65.8113 -31.9456 1.96034e-17)
(65.8027 -31.9672 -2.1142e-17)
(65.7944 -31.9872 1.65068e-17)
(65.7851 -32.0115 -2.29617e-17)
(65.7764 -32.0317 1.60401e-17)
(65.7662 -32.0573 0)
(65.7567 -32.079 0)
(65.7458 -32.1063 0)
(65.7357 -32.1302 8.98e-25)
(65.7241 -32.1598 -1.23537e-24)
(65.7133 -32.1854 -7.33895e-25)
(65.7005 -32.2182 -2.70766e-24)
(65.6892 -32.244 -1.52449e-17)
(65.6747 -32.2801 4.51959e-17)
(65.6635 -32.3042 -1.47993e-21)
(65.6478 -32.3411 -2.54263e-17)
(65.6354 -32.3661 1.50468e-17)
(65.6191 -32.4018 -2.13985e-17)
(65.6045 -32.4331 -1.69376e-17)
(65.5867 -32.4733 2.28137e-21)
(65.5714 -32.5067 3.21443e-17)
(65.5539 -32.5476 -4.1853e-17)
(65.5356 -32.5902 3.45009e-17)
(65.5128 -32.6429 -2.44826e-17)
(65.4951 -32.6778 1.65106e-17)
(65.4795 -32.7105 -2.54059e-21)
(65.457 -32.7629 -1.61336e-17)
(65.4391 -32.8033 0)
(65.4067 -32.8732 -2.22315e-17)
(65.3857 -32.9132 3.24251e-21)
(65.3675 -32.9475 1.44511e-17)
(65.3413 -32.9991 0)
(65.3204 -33.0443 0)
(65.2806 -33.131 -2.31843e-17)
(65.2563 -33.1753 2.92746e-17)
(65.2312 -33.2238 -5.26509e-21)
(65.193 -33.3098 -2.37364e-17)
(65.1711 -33.3459 -1.27428e-17)
(65.1384 -33.4051 3.7767e-17)
(65.0934 -33.4971 -5.13394e-17)
(65.062 -33.5529 3.38983e-17)
(65.0277 -33.6058 -3.23691e-17)
(64.9785 -33.6821 1.92777e-17)
(64.9462 -33.7451 1.03775e-24)
(64.9004 -33.85 -2.17957e-17)
(64.8637 -33.9191 3.21869e-17)
(64.822 -33.9891 -1.54307e-17)
(64.781 -34.0537 -1.56781e-17)
(64.7152 -34.1849 2.57104e-17)
(64.6697 -34.2762 1.5599e-17)
(64.622 -34.3541 -2.92713e-17)
(64.5818 -34.4027 1.58153e-17)
(64.4927 -34.5698 0)
(64.4588 -34.6338 5.80329e-24)
(64.3777 -34.7905 2.65041e-17)
(64.3304 -34.8564 -1.49744e-17)
(64.2487 -34.9797 -1.86735e-23)
(64.2007 -35.0719 1.16878e-23)
(64.11 -35.2539 2.69766e-17)
(64.0442 -35.3403 -4.70952e-21)
(63.9741 -35.406 -1.55959e-17)
(63.8758 -35.5628 0)
(63.7628 -35.7606 0)
(63.6873 -35.8814 -2.74954e-17)
(63.5661 -36.0585 4.34562e-17)
(63.5069 -36.1208 3.2315e-17)
(63.3591 -36.3858 -1.11772e-16)
(63.2735 -36.5376 3.29833e-17)
(63.1852 -36.6737 0)
(63.0742 -36.8252 -3.10113e-17)
(62.981 -36.9402 7.08508e-17)
(62.7885 -37.2658 -5.70643e-17)
(62.6858 -37.4461 0)
(62.5784 -37.6131 0)
(62.465 -37.7828 -2.91228e-17)
(62.2621 -38.0818 5.30912e-17)
(62.1452 -38.2793 2.46638e-23)
(61.9313 -38.6442 -5.83025e-17)
(61.8004 -38.8134 3.14835e-17)
(61.6483 -38.9826 -3.0296e-17)
(61.4214 -39.3711 5.90568e-17)
(61.275 -39.5985 -2.80986e-23)
(61.1132 -39.8102 0)
(60.9621 -39.9898 3.01759e-17)
(60.6276 -40.4562 -1.16615e-16)
(60.4495 -40.7304 3.52325e-17)
(60.2291 -41.025 3.50753e-17)
(60.0781 -41.187 -5.79454e-17)
(59.682 -41.7148 1.23053e-16)
(59.4113 -42.1398 -6.90972e-17)
(59.194 -42.4435 2.63303e-17)
(58.8037 -42.9983 -5.75599e-17)
(58.5422 -43.3347 1.32365e-20)
(58.2619 -43.648 3.294e-17)
(57.9079 -43.9903 -3.24969e-17)
(57.5819 -44.2581 3.44971e-17)
(57.1359 -44.817 0)
(56.7771 -45.2171 1.52104e-22)
(56.4029 -45.5376 3.36481e-17)
(55.9388 -45.9083 -7.02965e-17)
(55.52 -46.3029 -7.15224e-20)
(54.997 -46.8402 4.38669e-17)
(54.5311 -47.2747 4.06423e-17)
(53.9767 -47.7472 -3.49866e-17)
(53.5824 -48.0044 3.9712e-17)
(52.8565 -48.7316 -4.54235e-17)
(52.4708 -49.0396 0)
(51.8073 -49.6082 1.46332e-22)
(51.1259 -50.1566 1.45257e-22)
(50.4281 -50.655 1.31429e-22)
(49.7917 -51.052 4.09454e-17)
(49.0381 -51.7675 -4.53532e-17)
(48.2203 -52.5215 -1.93106e-22)
(47.5638 -52.992 1.30739e-22)
(46.8006 -53.4444 -3.79747e-17)
(45.8753 -53.9949 4.30068e-17)
(45.0191 -54.6658 -4.48322e-17)
(43.9444 -55.5427 8.49438e-20)
(43.1977 -56.0293 -1.98046e-19)
(42.2015 -56.5891 -3.86391e-19)
(41.1283 -57.17 9.0952e-17)
(40.188 -57.6806 2.92185e-19)
(38.911 -58.4113 3.50627e-19)
(37.789 -58.996 -1.0145e-16)
(36.4826 -59.6611 -3.40882e-19)
(35.3383 -60.1958 5.37258e-17)
(34.029 -60.8346 5.1657e-17)
(32.4881 -61.4691 -5.82921e-17)
(31.2452 -61.9146 -5.17356e-17)
(29.6195 -62.5036 6.1329e-17)
(28.1969 -63.0414 -3.85885e-22)
(26.4468 -63.5318 0)
(24.8678 -64.0112 -9.44201e-22)
(22.9538 -64.3926 3.54308e-17)
(21.2829 -64.8559 -3.10498e-17)
(19.1761 -65.0879 3.7004e-17)
(17.3928 -65.5319 3.79688e-19)
(15.0996 -65.5893 -7.26941e-17)
(13.0791 -65.9888 3.92614e-17)
(10.7598 -65.6235 -3.66837e-17)
(8.39428 -65.3237 -3.9122e-19)
(5.87886 -64.7631 4.55271e-17)
(3.27864 -62.7969 3.71956e-17)
(0.560554 -61.2451 -4.38235e-17)
(-2.16794 -59.6229 -2.69348e-21)
(-4.87271 -58.5635 -2.17006e-21)
(-7.54534 -57.8434 0)
(-10.2057 -57.1791 3.15201e-17)
(-12.9161 -56.4952 -1.50447e-19)
(-15.6316 -55.8346 -2.65334e-17)
(-17.7474 -55.165 -3.12299e-17)
(-21.7443 -53.7665 5.07782e-17)
(-23.7774 -53.105 -4.64062e-17)
(-27.1674 -51.7593 4.64046e-17)
(-30.0547 -50.4192 -2.16206e-17)
(-32.4663 -49.3958 1.97726e-17)
(-35.399 -47.8706 -1.97844e-17)
(-37.8182 -46.511 -2.36921e-21)
(-40.5367 -44.8925 0)
(-43.0208 -43.3385 0)
(-45.5011 -41.6417 -1.75182e-21)
(-47.8225 -40.0468 1.88409e-21)
(-49.9164 -38.5529 6.8743e-18)
(-52.1498 -36.6805 -6.73392e-18)
(-54.0662 -35.2358 0)
(-56.0646 -33.5341 0)
(-57.8366 -32.0384 -1.38984e-21)
(-59.5974 -30.4345 -1.29669e-21)
(-61.2435 -28.9457 4.53221e-18)
(-62.842 -27.5378 -8.42395e-18)
(-64.2981 -26.2308 4.29346e-18)