# p  FACE_DATA 341
#  x  y  z  p
0.253551 0.0594249 0.5 -691.487
0.260625 0.059604 0.5 -786.954
0.268301 0.0597641 0.5 -782.362
0.275825 0.0598682 0.5 -768.599
0.282831 0.059928 0.5 -739.363
0.290299 0.0599719 0.5 -729.829
0.298014 0.0599954 0.5 -715.582
0.305661 0.0599931 0.5 -707.127
0.313016 0.0599637 0.5 -694.589
0.3202 0.0599102 0.5 -679.638
0.327394 0.0598346 0.5 -667.129
0.334592 0.0597382 0.5 -653.641
0.341788 0.059622 0.5 -640.286
0.348891 0.0594882 0.5 -627.705
0.355903 0.0593371 0.5 -615.657
0.362912 0.0591677 0.5 -602.12
0.369915 0.058981 0.5 -588.802
0.376908 0.0587783 0.5 -576.114
0.383848 0.0585616 0.5 -563.271
0.39071 0.0583318 0.5 -551.467
0.397536 0.0580877 0.5 -538.32
0.404349 0.0578293 0.5 -525.887
0.411146 0.0575577 0.5 -512.937
0.417921 0.0572738 0.5 -500.376
0.424635 0.05698 0.5 -488.185
0.431287 0.0566758 0.5 -476.515
0.437919 0.0563599 0.5 -463.979
0.444529 0.056033 0.5 -451.47
0.451115 0.055696 0.5 -439.18
0.457672 0.0553498 0.5 -426.875
0.464179 0.0549959 0.5 -415.481
0.47064 0.0546337 0.5 -403.693
0.477077 0.0542621 0.5 -391.656
0.483487 0.0538822 0.5 -379.531
0.489866 0.0534947 0.5 -367.663
0.496211 0.0531004 0.5 -355.905
0.50252 0.0526998 0.5 -344.44
0.508797 0.0522921 0.5 -333.267
0.515045 0.0518774 0.5 -321.445
0.52126 0.0514563 0.5 -309.849
0.52744 0.0510296 0.5 -298.223
0.533582 0.0505981 0.5 -286.763
0.539695 0.0501616 0.5 -275.462
0.545788 0.0497191 0.5 -264.658
0.551854 0.0492707 0.5 -253.281
0.557885 0.0488177 0.5 -242.017
0.563876 0.0483607 0.5 -230.675
0.569827 0.0479005 0.5 -219.476
0.575737 0.0474373 0.5 -208.444
0.58164 0.0469687 0.5 -197.661
0.587536 0.0464941 0.5 -186.893
0.593393 0.0460162 0.5 -175.818
0.599208 0.0455357 0.5 -164.819
0.60498 0.045053 0.5 -153.819
0.610706 0.0445687 0.5 -143.038
0.616408 0.0440814 0.5 -132.201
0.622117 0.043588 0.5 -121.782
0.627812 0.04309 0.5 -110.902
0.633463 0.0425903 0.5 -99.9937
0.639069 0.0420895 0.5 -89.1116
0.644626 0.0415881 0.5 -78.2863
0.650134 0.0410868 0.5 -67.5994
0.655639 0.0405812 0.5 -56.9461
0.661165 0.0400689 0.5 -46.499
0.666665 0.039554 0.5 -35.6329
0.672117 0.0390389 0.5 -24.8407
0.677519 0.038524 0.5 -14.0332
0.682868 0.0380099 0.5 -3.33452
0.688165 0.037497 0.5 7.32519
0.693484 0.0369779 0.5 17.9007
0.698837 0.0364512 0.5 28.5672
0.704147 0.0359241 0.5 39.4944
0.709405 0.0353979 0.5 50.3575
0.714609 0.0348733 0.5 61.2393
0.719757 0.0343505 0.5 72.0066
0.724855 0.0338293 0.5 82.7824
0.729999 0.0332999 0.5 93.487
0.73518 0.0327625 0.5 104.462
0.740306 0.0322267 0.5 115.595
0.745375 0.0316932 0.5 126.695
0.750386 0.0311622 0.5 137.8
0.755336 0.0306343 0.5 148.815
0.76026 0.0301061 0.5 159.878
0.765241 0.0295683 0.5 170.955
0.770246 0.0290241 0.5 182.359
0.775191 0.0284829 0.5 193.865
0.780073 0.027945 0.5 205.343
0.784891 0.0274108 0.5 216.809
0.789645 0.0268807 0.5 228.198
0.794414 0.0263459 0.5 239.734
0.799254 0.0257999 0.5 251.41
0.804082 0.0252514 0.5 263.466
0.808843 0.0247071 0.5 275.528
0.813536 0.0241673 0.5 287.621
0.81816 0.0236326 0.5 299.66
0.822721 0.0231023 0.5 311.692
0.827366 0.0225594 0.5 323.95
0.832084 0.0220045 0.5 336.617
0.836729 0.0214548 0.5 349.501
0.841299 0.0209107 0.5 362.303
0.845793 0.0203728 0.5 375.158
0.85021 0.0198415 0.5 387.902
0.854677 0.0193015 0.5 400.974
0.859239 0.0187469 0.5 414.329
0.863766 0.0181934 0.5 428.124
0.868209 0.0176469 0.5 441.814
0.872568 0.017108 0.5 455.566
0.87684 0.0165772 0.5 469.159
0.881165 0.0160373 0.5 483.195
0.885597 0.0154808 0.5 497.617
0.889995 0.0149253 0.5 512.526
0.894296 0.0143788 0.5 527.342
0.8985 0.013842 0.5 542.094
0.902612 0.0133146 0.5 556.791
0.90685 0.0127685 0.5 572.024
0.911199 0.0122047 0.5 587.986
0.915436 0.0116524 0.5 604.069
0.919558 0.0111121 0.5 619.966
0.923564 0.0105848 0.5 635.696
0.92766 0.0100432 0.5 652.023
0.931889 0.00948105 0.5 668.975
0.936032 0.00892713 0.5 686.288
0.940034 0.00838932 0.5 703.184
0.943918 0.00786528 0.5 719.947
0.947957 0.00731753 0.5 737.556
0.952111 0.00675118 0.5 755.832
0.956082 0.0062066 0.5 774.295
0.959868 0.005685 0.5 791.353
0.963806 0.00514008 0.5 810.72
0.967884 0.00457263 0.5 828.581
0.971729 0.00403453 0.5 849.842
0.97552 0.00350184 0.5 864.973
0.979458 0.0029459 0.5 890.723
0.983267 0.00240536 0.5 900.851
0.98706 0.00186472 0.5 935.816
0.990882 0.00131704 0.5 932.538
0.994678 0.000770466 0.5 989.815
0.99832 0.00024378 0.5 955.16
0.00133235 0.00449653 0.5 3833.49
0.00576479 0.0125392 0.5 1859.99
0.0127073 0.018847 0.5 482.056
0.0207688 0.0238748 0.5 -113.992
0.0291543 0.0279559 0.5 -390.853
0.037672 0.0313759 0.5 -619.71
0.0464094 0.0343841 0.5 -685.799
0.0551576 0.0370177 0.5 -806.334
0.0639069 0.0393539 0.5 -835.816
0.0727041 0.0414595 0.5 -875.34
0.081414 0.0433437 0.5 -906.107
0.090183 0.0450639 0.5 -913.095
0.098871 0.0466203 0.5 -932.214
0.107395 0.0480148 0.5 -930.864
0.116087 0.049318 0.5 -939.37
0.124618 0.0504925 0.5 -935.954
0.132994 0.0515502 0.5 -934.932
0.141535 0.0525408 0.5 -932.325
0.149928 0.053435 0.5 -925.089
0.158135 0.0542362 0.5 -921.099
0.166435 0.0549791 0.5 -911.43
0.174718 0.0556571 0.5 -905.256
0.182824 0.0562624 0.5 -895.469
0.190865 0.0568083 0.5 -886.165
0.198976 0.0573076 0.5 -878.424
0.20712 0.0577564 0.5 -865.905
0.215524 0.0581602 0.5 -862.842
0.224086 0.0585239 0.5 -819.948
0.231971 0.0588335 0.5 -832.787
0.239768 0.0591111 0.5 -797.423
0.246955 0.0592927 0.5 -883.322
0.00133235 -0.00449653 0.5 3800.48
0.00576479 -0.0125392 0.5 1910.21
0.0127073 -0.018847 0.5 451.771
0.0207688 -0.0238748 0.5 -81.4866
0.0291543 -0.0279559 0.5 -411.714
0.037672 -0.0313759 0.5 -573.222
0.0464094 -0.0343841 0.5 -722.556
0.0551576 -0.0370177 0.5 -776.379
0.0639069 -0.0393539 0.5 -845.853
0.0727041 -0.0414595 0.5 -867.085
0.081414 -0.0433437 0.5 -904.686
0.090183 -0.0450639 0.5 -911.263
0.098871 -0.0466203 0.5 -928.565
0.107395 -0.0480148 0.5 -930.562
0.116087 -0.049318 0.5 -935.477
0.124618 -0.0504925 0.5 -936.125
0.132994 -0.0515502 0.5 -931.299
0.141535 -0.0525408 0.5 -932.776
0.149928 -0.053435 0.5 -921.947
0.158135 -0.0542362 0.5 -921.682
0.166435 -0.0549791 0.5 -908.653
0.174718 -0.0556571 0.5 -905.972
0.182824 -0.0562624 0.5 -893.097
0.190865 -0.0568083 0.5 -886.97
0.198976 -0.0573076 0.5 -876.422
0.20712 -0.0577564 0.5 -866.692
0.215524 -0.0581602 0.5 -861.326
0.224086 -0.0585239 0.5 -820.427
0.231971 -0.0588335 0.5 -832.293
0.239768 -0.0591111 0.5 -796.442
0.246955 -0.0592927 0.5 -884.858
0.253478 -0.0594229 0.5 -691.766
0.260394 -0.0595984 0.5 -787.136
0.267845 -0.0597569 0.5 -781.418
0.275233 -0.059862 0.5 -771.968
0.282135 -0.059923 0.5 -740.804
0.289403 -0.0599678 0.5 -731.971
0.296942 -0.0599937 0.5 -718.191
0.304465 -0.0599955 0.5 -708.346
0.311708 -0.0599711 0.5 -698.605
0.318744 -0.0599229 0.5 -683.093
0.325783 -0.0598535 0.5 -670.72
0.332827 -0.0597638 0.5 -657.838
0.339871 -0.0596549 0.5 -644.956
0.346848 -0.0595287 0.5 -632.483
0.353736 -0.0593859 0.5 -620.313
0.360596 -0.0592257 0.5 -607.982
0.367453 -0.0590487 0.5 -594.821
0.3743 -0.0588558 0.5 -582.254
0.381124 -0.0586486 0.5 -569.317
0.38787 -0.0584289 0.5 -558.081
0.394554 -0.0581963 0.5 -545.719
0.401228 -0.0579495 0.5 -533.186
0.407888 -0.0576896 0.5 -520.661
0.41453 -0.0574175 0.5 -508.357
0.421133 -0.0571349 0.5 -496.382
0.427675 -0.0568427 0.5 -484.882
0.434175 -0.0565398 0.5 -472.986
0.440657 -0.0562259 0.5 -460.652
0.447118 -0.0559019 0.5 -448.827
0.453553 -0.0555685 0.5 -436.826
0.459952 -0.0552271 0.5 -424.933
0.466305 -0.054878 0.5 -414.055
0.472621 -0.0545205 0.5 -402.161
0.478913 -0.0541543 0.5 -390.737
0.485178 -0.0537804 0.5 -378.873
0.491413 -0.0533994 0.5 -367.279
0.497615 -0.0530121 0.5 -355.881
0.503783 -0.0526186 0.5 -344.852
0.509921 -0.0522183 0.5 -333.904
0.51603 -0.0518112 0.5 -322.427
0.522108 -0.0513982 0.5 -311.06
0.528152 -0.05098 0.5 -299.737
0.534159 -0.0505573 0.5 -288.629
0.54014 -0.0501296 0.5 -277.629
0.546102 -0.0496961 0.5 -267.203
0.552038 -0.0492571 0.5 -256.066
0.557939 -0.0488136 0.5 -245.032
0.563803 -0.0483664 0.5 -234.033
0.569628 -0.047916 0.5 -223.105
0.575412 -0.047463 0.5 -212.359
0.58119 -0.0470047 0.5 -201.916
0.586964 -0.0465405 0.5 -191.388
0.5927 -0.0460731 0.5 -180.598
0.598397 -0.0456031 0.5 -169.89
0.604052 -0.045131 0.5 -159.182
0.609664 -0.0446572 0.5 -148.627
0.615243 -0.0441814 0.5 -138.16
0.620829 -0.0436999 0.5 -127.915
0.626413 -0.0432129 0.5 -117.431
0.631955 -0.0427242 0.5 -106.764
0.637454 -0.0422343 0.5 -96.2299
0.642907 -0.0417437 0.5 -85.5657
0.648313 -0.041253 0.5 -75.2391
0.653694 -0.0407603 0.5 -64.7698
0.659096 -0.0402614 0.5 -54.625
0.664496 -0.0397577 0.5 -44.1333
0.669852 -0.0392536 0.5 -33.5881
0.675159 -0.0387495 0.5 -23.0908
0.680418 -0.0382459 0.5 -12.5684
0.685626 -0.0377433 0.5 -2.25064
0.690816 -0.0372389 0.5 8.17187
0.696038 -0.0367272 0.5 18.4014
0.701263 -0.0362109 0.5 28.9873
0.706438 -0.0356954 0.5 39.6136
0.711561 -0.035181 0.5 50.2011
0.716633 -0.0346682 0.5 60.8209
0.72165 -0.0341574 0.5 71.2555
0.726654 -0.0336446 0.5 81.8171
0.731704 -0.0331235 0.5 92.2656
0.736758 -0.032598 0.5 103.075
0.741759 -0.0320742 0.5 113.942
0.746705 -0.0315527 0.5 124.735
0.751594 -0.0310337 0.5 135.609
0.756425 -0.0305178 0.5 146.263
0.761255 -0.029999 0.5 157.113
0.766142 -0.0294707 0.5 167.917
0.771031 -0.0289385 0.5 179.111
0.775861 -0.0284092 0.5 190.307
0.780632 -0.0278832 0.5 201.505
0.785341 -0.0273608 0.5 212.704
0.789989 -0.0268423 0.5 223.819
0.79466 -0.0263184 0.5 235.097
0.799401 -0.0257833 0.5 246.521
0.804125 -0.0252465 0.5 258.337
0.808785 -0.0247137 0.5 270.121
0.81338 -0.0241853 0.5 281.959
0.817908 -0.0236617 0.5 293.721
0.822369 -0.0231434 0.5 305.494
0.826908 -0.0226131 0.5 317.445
0.831528 -0.0220701 0.5 329.816
0.836084 -0.0215313 0.5 342.412
0.840568 -0.0209979 0.5 354.969
0.844979 -0.0204704 0.5 367.555
0.849317 -0.0199491 0.5 380.052
0.853667 -0.0194238 0.5 392.781
0.858113 -0.0188842 0.5 405.759
0.862564 -0.0183407 0.5 419.221
0.866936 -0.0178038 0.5 432.681
0.871227 -0.0172741 0.5 446.164
0.875436 -0.016752 0.5 459.535
0.879628 -0.0162295 0.5 473.151
0.88393 -0.0156905 0.5 487.063
0.88827 -0.0151435 0.5 501.672
0.892518 -0.014605 0.5 516.227
0.896674 -0.0140755 0.5 530.796
0.900735 -0.0135557 0.5 545.22
0.904824 -0.01303 0.5 560.041
0.909034 -0.0124858 0.5 575.283
0.913238 -0.0119394 0.5 591.158
0.917332 -0.0114042 0.5 606.897
0.921316 -0.010881 0.5 622.484
0.925241 -0.0103633 0.5 638.168
0.929306 -0.00982488 0.5 654.422
0.933445 -0.00927338 0.5 671.488
0.937451 -0.00873681 0.5 688.431
0.941321 -0.00821597 0.5 705.043
0.945168 -0.00769601 0.5 721.905
0.949167 -0.00715299 0.5 739.492
0.953183 -0.00660441 0.5 757.622
0.957024 -0.006077 0.5 775.666
0.960743 -0.00556416 0.5 792.77
0.964631 -0.00502557 0.5 812.026
0.968598 -0.00447292 0.5 829.851
0.972318 -0.00395183 0.5 850.689
0.976051 -0.00342699 0.5 865.844
0.979926 -0.00287974 0.5 891.512
0.983612 -0.00235633 0.5 901.526
0.987331 -0.00182587 0.5 936.233
0.991079 -0.00128868 0.5 933.096
0.994786 -0.000754822 0.5 989.844
0.998359 -0.000238135 0.5 955.529
