/*--------------------------------*- C++ -*----------------------------------*\
  =========                 |
  \\      /  F ield         | OpenFOAM: The Open Source CFD Toolbox
   \\    /   O peration     | Website:  https://openfoam.org
    \\  /    A nd           | Version:  7
     \\/     M anipulation  |
\*---------------------------------------------------------------------------*/
FoamFile
{
    version     2.0;
    format      ascii;
    class       surfaceScalarField;
    location    "0";
    object      phi;
}
// * * * * * * * * * * * * * * * * * * * * * * * * * * * * * * * * * * * * * //

dimensions      [0 3 -1 0 0 0 0];

internalField   nonuniform List<scalar> 
151913
(
0.00183073
-0.00375056
-0.00188958
0.00189984
-0.00379715
0.00176736
-0.00388016
0.00182307
-0.00396484
0.00173147
-0.00405121
0.00177172
-0.00413931
0.00170168
-0.00422915
0.00172062
-0.00432077
0.00166949
-0.0044142
0.00166771
-0.00450946
0.00162454
-0.00460659
0.00160293
-0.00470561
0.00156916
-0.00480654
0.00153075
-0.00490941
0.00150018
-0.00501426
0.00144663
-0.00512111
0.0014216
-0.00522998
0.00135544
-0.00534091
0.0013317
-0.00545391
0.00125415
-0.00556901
0.00123409
-0.00568624
0.00114697
-0.00580563
0.0011273
-0.0059272
0.00103139
-0.00605097
0.00101452
-0.00617696
0.00091114
-0.0063052
0.000894318
-0.00643572
0.000783925
-0.00656853
0.000769679
-0.00670365
0.000653281
-0.00684111
0.000639115
-0.00698091
0.00051695
-0.0071231
0.000505566
-0.00726766
0.000378462
-0.00741464
0.000367464
-0.00756403
0.000235536
-0.00771585
0.000227652
-0.00787012
9.16774e-05
-0.00802684
8.45672e-05
-0.00818603
-5.53421e-05
-0.00834769
-5.92013e-05
-0.00851182
-0.000202219
-0.00867843
-0.000205024
-0.00884753
-0.000350908
-0.00901911
-0.00035068
-0.00919316
-0.000498506
-0.00936969
-0.000497132
-0.00954868
-0.000646452
-0.00973012
-0.000642485
-0.00991401
-0.000792298
-0.0101003
-0.000787166
-0.010289
-0.000936843
-0.0104801
-0.000929431
-0.0106736
-0.00107796
-0.0108694
-0.00106922
-0.0110674
-0.0012159
-0.0112678
-0.00120474
-0.0114703
-0.00134863
-0.011675
-0.00133564
-0.0118818
-0.00147606
-0.0120907
-0.00146
-0.0123016
-0.00159612
-0.0125144
-0.00157737
-0.0127291
-0.0017086
-0.0129455
-0.00168571
-0.0131637
-0.00181131
-0.0133834
-0.00178463
-0.0136047
-0.00190408
-0.0138273
-0.00187198
-0.0140513
-0.0019846
-0.0142764
-0.00194746
-0.0145026
-0.00205278
-0.0147296
-0.0020088
-0.0149575
-0.00210614
-0.0151859
-0.00205581
-0.0154148
-0.0021447
-0.0156439
-0.00208614
-0.0158732
-0.00216584
-0.0161023
-0.00209962
-0.0163312
-0.00216962
-0.0165594
-0.00209412
-0.016787
-0.00215353
-0.0170135
-0.00206927
-0.0172387
-0.00211738
-0.0174624
-0.00202353
-0.0176843
-0.00205924
-0.017904
-0.00195596
-0.0181214
-0.00197821
-0.0183359
-0.00186597
-0.0185473
-0.00187342
-0.0187552
-0.00175159
-0.0189592
-0.00174273
-0.0191588
-0.00161335
-0.0193539
-0.00158665
-0.0195435
-0.00144792
-0.0197277
-0.00140147
-0.0199055
-0.00125701
-0.0200769
-0.0011891
-0.0202407
-0.00103563
-0.020397
-0.000943966
-0.0205446
-0.000787456
-0.0206834
-0.000670027
-0.0208121
-0.00050534
-0.0209308
-0.000359306
-0.0210378
-0.000196803
-0.0211334
-1.96989e-05
-0.0212157
0.000149564
-0.0212848
0.000361653
-0.0213389
0.000520413
-0.0213782
0.000772039
-0.0214003
0.000932417
-0.0214056
0.00123111
-0.0213917
0.00135383
-0.0213592
0.00169812
-0.0213043
0.00180902
-0.0212284
0.00220368
-0.0211267
0.00234654
-0.0210016
0.00278816
-0.0208475
0.00293363
-0.0206677
0.00340905
-0.0204545
0.00361434
-0.0202127
0.00412289
-0.0199344
0.00436176
-0.0196243
0.0048917
-0.019274
0.00515998
-0.0188882
0.00570712
-0.0184584
0.00603267
-0.0179882
0.00659567
-0.0174703
0.00697429
-0.0169066
0.0075464
-0.0162912
0.0079988
-0.0156238
0.00857876
-0.0149021
0.00907711
-0.0141209
0.00967032
-0.0132798
0.010205
-0.0123713
0.0108185
-0.0113964
0.0113734
-0.0103454
0.0120213
-0.00921927
0.0125774
-0.00800787
0.0132689
-0.00670967
0.0138396
-0.00531619
0.0145827
-0.00382447
0.015176
-0.00222685
0.0159699
-0.000518503
0.0165895
0.00130833
0.0174363
0.00326123
0.0181164
0.00534699
0.0190104
0.00757448
0.0197634
0.00995165
0.0206973
0.0124868
0.021517
0.0151917
0.0224907
0.0180757
0.0233862
0.0211523
0.0243956
0.02443
0.0253523
0.0279281
0.0264063
0.0316557
0.0274228
0.0356355
0.0285282
0.0398801
0.0296151
0.0444152
0.0307831
0.0492562
0.031946
0.0544319
0.0331802
0.0599628
0.0344253
0.0658824
0.0357366
0.0722159
0.0370698
0.0790022
0.038465
0.0862744
0.0398969
0.0940789
0.0413917
0.102457
0.0429333
0.111464
0.0445406
0.121155
0.0462104
0.131597
0.0479538
0.142858
0.0497721
0.155024
0.0516763
0.168186
0.0536763
0.18245
0.0557812
0.197933
0.0580039
0.214777
0.0603599
0.233138
0.0628713
0.253202
0.0655585
0.275184
0.0684512
0.299336
0.0715862
0.325958
0.0750119
0.355409
0.0787839
0.388116
0.0829818
0.424603
0.0877111
0.465513
0.0931079
0.511645
0.099362
0.564007
0.106748
0.623892
0.115647
0.692983
0.126638
0.773518
0.140603
0.868541
0.158962
0.982287
0.184108
1.12083
0.220383
1.29315
0.276325
1.51299
0.370629
1.80194
0.549746
2.1945
0.946394
2.74306
1.99634
3.50514
5.32334
4.39988
4.24913
0.0732866
-0.00354833
-0.0734751
0.0731738
-0.00359377
0.0729249
-0.00367317
0.072806
-0.00375421
0.0725761
-0.00383689
0.0724478
-0.00392126
0.0722308
-0.00400733
0.0720861
-0.00409515
0.0718792
-0.00418473
0.0717151
-0.00427611
0.0715126
-0.00436932
0.0713276
-0.00446438
0.0711271
-0.00456133
0.0709215
-0.0046602
0.0707202
-0.004761
0.0704949
-0.00486378
0.0702914
-0.00496856
0.0700476
-0.00507536
0.0698404
-0.00518422
0.0695791
-0.00529517
0.0693675
-0.00540822
0.0690896
-0.00552342
0.0688729
-0.00564078
0.0685794
-0.00576033
0.0683571
-0.0058821
0.0680487
-0.00600612
0.0678203
-0.0061324
0.0674977
-0.00626098
0.0672631
-0.00639188
0.0669266
-0.00652511
0.0666858
-0.00666071
0.066336
-0.0067987
0.0660887
-0.00693909
0.0657259
-0.00708191
0.0654725
-0.00722717
0.065097
-0.00737489
0.0648373
-0.00752509
0.0644494
-0.00767778
0.0641838
-0.00783298
0.0637839
-0.00799069
0.0635122
-0.00815093
0.0631007
-0.00831372
0.0628231
-0.00847903
0.0624004
-0.0086469
0.0621169
-0.00881732
0.0616834
-0.00899029
0.0613941
-0.0091658
0.0609505
-0.00934386
0.0606552
-0.00952445
0.0602023
-0.00970757
0.059901
-0.00989319
0.0594395
-0.0100813
0.0591322
-0.0102719
0.0586631
-0.010465
0.05835
-0.0106604
0.0578741
-0.0108583
0.0575555
-0.0110585
0.0570738
-0.011261
0.05675
-0.0114658
0.0562634
-0.0116729
0.055935
-0.0118821
0.0554445
-0.0120934
0.0551122
-0.0123067
0.0546185
-0.012522
0.0542832
-0.0127392
0.0537874
-0.0129582
0.0534499
-0.013179
0.0529528
-0.0134014
0.052614
-0.0136252
0.0521167
-0.0138505
0.0517777
-0.0140771
0.0512809
-0.0143048
0.0509429
-0.0145335
0.0504476
-0.0147631
0.0501117
-0.0149935
0.0496189
-0.0152243
0.0492863
-0.0154555
0.0487971
-0.0156869
0.048469
-0.0159183
0.0479842
-0.0161495
0.0476619
-0.0163802
0.047183
-0.0166102
0.0468674
-0.0168392
0.0463954
-0.017067
0.0460878
-0.0172934
0.0456243
-0.0175179
0.0453252
-0.0177404
0.0448716
-0.0179604
0.0445823
-0.0181776
0.0441405
-0.0183917
0.0438608
-0.0186023
0.0434325
-0.018809
0.0431638
-0.0190113
0.0427514
-0.0192088
0.0424929
-0.019401
0.0420983
-0.0195875
0.0418518
-0.0197677
0.0414778
-0.019941
0.0412417
-0.020107
0.0408904
-0.020265
0.0406671
-0.0204143
0.0403417
-0.0205543
0.0401288
-0.0206844
0.0398318
-0.0208037
0.0396317
-0.0209116
0.0393666
-0.0210072
0.0391739
-0.0210897
0.0389448
-0.0211581
0.0387639
-0.0212117
0.0385739
-0.0212493
0.0383905
-0.0212702
0.038239
-0.0212726
0.0380831
-0.0212561
0.0379698
-0.0212189
0.0378541
-0.0211602
0.0377744
-0.0210784
0.0377057
-0.0209724
0.0376557
-0.0208405
0.0376494
-0.0206815
0.0376296
-0.0204939
0.0376528
-0.020276
0.0376661
-0.0200261
0.0377161
-0.0197423
0.0377691
-0.0194227
0.0378295
-0.0190652
0.0379303
-0.0186671
0.0380169
-0.0182266
0.0381765
-0.0177408
0.038282
-0.0172079
0.0385043
-0.0166244
0.0386019
-0.0159886
0.0388895
-0.0152952
0.0390349
-0.0145434
0.0393913
-0.0137284
0.0395799
-0.0128481
0.0400008
-0.0118973
0.0402505
-0.0108735
0.0407311
-0.00977143
0.041062
-0.00858703
0.0416052
-0.00731604
0.0419918
-0.00595307
0.0425924
-0.00449282
0.0430345
-0.00292898
0.0437015
-0.00125478
0.0442222
0.000535746
0.0449584
0.00245089
0.0455647
0.00449705
0.0463765
0.00668348
0.0470621
0.00901732
0.0479529
0.0115111
0.0487429
0.0141715
0.0497156
0.0170102
0.0505932
0.0200382
0.0516593
0.0232697
0.0526443
0.0267166
0.0538088
0.030395
0.0549193
0.0343208
0.0561999
0.0385118
0.0574488
0.0429865
0.0588539
0.0477668
0.0602557
0.0528754
0.0618058
0.0583371
0.0633741
0.0641788
0.0650849
0.0704317
0.0668431
0.077129
0.0687458
0.0843069
0.0707188
0.0920056
0.0728426
0.100271
0.0750702
0.109154
0.0774633
0.118709
0.0799897
0.128998
0.0827046
0.140094
0.085598
0.152074
0.0887155
0.165028
0.0920594
0.179056
0.09568
0.194275
0.099602
0.210817
0.103878
0.228832
0.108551
0.248495
0.113694
0.270012
0.119388
0.29362
0.12573
0.319595
0.132844
0.34827
0.140899
0.380042
0.1501
0.415384
0.16072
0.454871
0.173128
0.499213
0.187825
0.549288
0.205499
0.606191
0.227137
0.671321
0.25417
0.746466
0.288744
0.83395
0.334194
0.936824
0.395913
1.05911
0.483013
1.20606
0.611697
1.38431
0.812343
1.60131
1.14479
1.86204
1.73082
2.15702
2.81302
2.42293
4.7843
2.42859
1.4755
0.127527
-0.00328306
-0.12782
0.127323
-0.00332655
0.127016
-0.00340086
0.126809
-0.00347672
0.126513
-0.00355417
0.126294
-0.00363322
0.126008
-0.00371392
0.125772
-0.00379628
0.125488
-0.00388034
0.125231
-0.00396614
0.124947
-0.00405369
0.124668
-0.00414303
0.12438
-0.00423418
0.124079
-0.00432718
0.123785
-0.00442206
0.123463
-0.00451885
0.123162
-0.00461757
0.122819
-0.00471826
0.12251
-0.00482094
0.122147
-0.00492565
0.121829
-0.00503241
0.121446
-0.00514125
0.121119
-0.00525221
0.120717
-0.00536531
0.120379
-0.00548057
0.119958
-0.00559803
0.11961
-0.00571772
0.119171
-0.00583966
0.118812
-0.00596388
0.118354
-0.00609041
0.117984
-0.00621926
0.117508
-0.00635048
0.117126
-0.00648407
0.116633
-0.00662007
0.116239
-0.0067585
0.115728
-0.00689937
0.115323
-0.00704271
0.114794
-0.00718854
0.114377
-0.00733688
0.113831
-0.00748774
0.113402
-0.00764114
0.112839
-0.00779709
0.112398
-0.0079556
0.111817
-0.00811669
0.111365
-0.00828036
0.110768
-0.00844663
0.110303
-0.00861548
0.10969
-0.00878694
0.109213
-0.00896098
0.108584
-0.00913762
0.108094
-0.00931685
0.10745
-0.00949865
0.106948
-0.00968301
0.10629
-0.00986992
0.105775
-0.0100594
0.105103
-0.0102513
0.104577
-0.0104457
0.103892
-0.0106426
0.103354
-0.0108419
0.102658
-0.0110436
0.102108
-0.0112475
0.101401
-0.0114538
0.10084
-0.0116623
0.100123
-0.0118729
0.0995517
-0.0120857
0.0988257
-0.0123004
0.0982455
-0.0125171
0.0975114
-0.0127356
0.0969234
-0.0129559
0.0961821
-0.0131779
0.095587
-0.0134014
0.0948396
-0.0136263
0.0942389
-0.0138525
0.0934865
-0.0140798
0.0928812
-0.0143082
0.0921249
-0.0145374
0.0915167
-0.0147674
0.0907578
-0.0149978
0.0901477
-0.0152285
0.0893875
-0.0154594
0.0887775
-0.0156902
0.0880173
-0.0159206
0.0874084
-0.0161505
0.0866499
-0.0163796
0.0860438
-0.0166075
0.0852886
-0.0168341
0.0846864
-0.017059
0.0839366
-0.017282
0.0833396
-0.0175026
0.0825971
-0.0177205
0.0820065
-0.0179353
0.0812737
-0.0181466
0.0806904
-0.0183541
0.0799698
-0.0185573
0.079395
-0.0187557
0.0786893
-0.0189488
0.0781237
-0.0191362
0.0774355
-0.0193172
0.0768807
-0.0194914
0.0762134
-0.0196581
0.0756693
-0.0198167
0.0750258
-0.0199665
0.0744947
-0.020107
0.0738784
-0.0202372
0.0733584
-0.0203566
0.0727731
-0.0204642
0.072268
-0.0205593
0.0717171
-0.0206409
0.0712221
-0.0207083
0.0707074
-0.0207602
0.0702356
-0.0207958
0.0697586
-0.0208139
0.0693155
-0.0208135
0.0688764
-0.0207934
0.0684708
-0.0207523
0.0680689
-0.020689
0.0677091
-0.0206022
0.0673461
-0.0204906
0.067026
-0.0203524
0.0667036
-0.0201865
0.0664238
-0.0199907
0.0661459
-0.0197639
0.0658998
-0.0195037
0.0656714
-0.0192085
0.0654657
-0.0188758
0.065293
-0.0185039
0.0651227
-0.0180903
0.0650128
-0.0176325
0.0648715
-0.0171283
0.0648302
-0.0165742
0.0647257
-0.0159684
0.0647578
-0.0153069
0.0646839
-0.0145878
0.0647955
-0.0138056
0.064781
-0.0129592
0.0649717
-0.0120429
0.0650237
-0.0110547
0.0652976
-0.00998837
0.065432
-0.00884164
0.0657866
-0.00760834
0.0660016
-0.00628474
0.0664395
-0.00486408
0.0667482
-0.00334215
0.0672693
-0.00171153
0.0676843
3.34373e-05
0.0682978
0.00190031
0.0688195
0.00389573
0.0695286
0.00602903
0.0701735
0.00830772
0.0709878
0.0107407
0.0717353
0.013338
0.072668
0.0161121
0.0735458
0.0190725
0.0746053
0.0222326
0.0756242
0.0256056
0.0768326
0.0292071
0.0780193
0.0330512
0.079388
0.0371567
0.080766
0.0415416
0.0823204
0.0462264
0.0839062
0.0512322
0.0856634
0.0565848
0.0874853
0.0623104
0.0894825
0.0684383
0.0915689
0.0749995
0.0938388
0.0820314
0.0962363
0.0895727
0.0988357
0.0976666
0.101595
0.10636
0.104582
0.115709
0.10778
0.125773
0.111245
0.136619
0.114974
0.148319
0.119024
0.160962
0.123418
0.174643
0.128214
0.189468
0.133451
0.205561
0.139205
0.223064
0.145549
0.242139
0.152582
0.262971
0.160413
0.285775
0.169192
0.310805
0.179101
0.338354
0.190366
0.368767
0.20328
0.402454
0.218232
0.439907
0.235721
0.481708
0.256426
0.528563
0.281273
0.581327
0.311548
0.641031
0.349071
0.708929
0.396496
0.78652
0.457764
0.875558
0.538904
0.977976
0.649369
1.0956
0.804316
1.22936
1.0284
1.3772
1.36129
1.52914
1.86256
1.65573
2.60115
1.68431
3.56966
1.46008
0.690723
0.165614
-0.00300403
-0.165867
0.165377
-0.00304512
0.165074
-0.00311382
0.164824
-0.00318399
0.164522
-0.00325565
0.164259
-0.00332884
0.163954
-0.00340357
0.163673
-0.00347988
0.163365
-0.0035578
0.163065
-0.00363736
0.162751
-0.00371858
0.162431
-0.00380151
0.162111
-0.00388615
0.16177
-0.00397255
0.161441
-0.00406074
0.16108
-0.00415074
0.160743
-0.00424259
0.160361
-0.00433631
0.160014
-0.00443194
0.159612
-0.0045295
0.159254
-0.00462903
0.158832
-0.00473055
0.158462
-0.0048341
0.158021
-0.00493971
0.157639
-0.0050474
0.157178
-0.00515721
0.156783
-0.00526916
0.156302
-0.00538329
0.155894
-0.00549962
0.155393
-0.00561819
0.154972
-0.00573901
0.154451
-0.00586212
0.154016
-0.00598755
0.153475
-0.00611532
0.153025
-0.00624545
0.152464
-0.00637798
0.152
-0.00651292
0.151419
-0.00665031
0.15094
-0.00679015
0.150339
-0.00693248
0.149845
-0.00707731
0.149224
-0.00722466
0.148715
-0.00737455
0.148073
-0.00752699
0.147548
-0.007682
0.146887
-0.0078396
0.146346
-0.00799978
0.145665
-0.00816256
0.145108
-0.00832794
0.144407
-0.00849594
0.143834
-0.00866654
0.143113
-0.00883975
0.142523
-0.00901556
0.141784
-0.00919398
0.141178
-0.00937497
0.140421
-0.00955854
0.139797
-0.00974465
0.139022
-0.00993331
0.138382
-0.0101245
0.137591
-0.0103181
0.136933
-0.0105142
0.136126
-0.0107126
0.135453
-0.0109135
0.13463
-0.0111166
0.133941
-0.011322
0.133103
-0.0115295
0.1324
-0.0117392
0.131549
-0.0119509
0.130831
-0.0121646
0.129967
-0.0123802
0.129236
-0.0125975
0.12836
-0.0128165
0.127617
-0.013037
0.12673
-0.013259
0.125977
-0.0134823
0.125079
-0.0137067
0.124317
-0.0139321
0.123411
-0.0141584
0.12264
-0.0143853
0.121726
-0.0146127
0.120949
-0.0148404
0.120029
-0.0150681
0.119248
-0.0152957
0.118323
-0.0155229
0.117538
-0.0157494
0.116611
-0.0159749
0.115823
-0.0161993
0.114896
-0.0164221
0.114108
-0.016643
0.113181
-0.0168618
0.112395
-0.017078
0.111472
-0.0172913
0.110687
-0.0175013
0.109772
-0.0177075
0.108991
-0.0179094
0.108085
-0.0181067
0.107309
-0.0182988
0.106415
-0.0184852
0.105646
-0.0186654
0.104768
-0.0188387
0.104008
-0.0190045
0.103149
-0.0191623
0.102397
-0.0193113
0.101562
-0.0194508
0.100822
-0.0195801
0.100013
-0.0196983
0.0992845
-0.0198048
0.0985053
-0.0198985
0.0977951
-0.0199786
0.097049
-0.0200441
0.0963583
-0.0200941
0.0956476
-0.0201274
0.0949825
-0.0201431
0.0943099
-0.0201398
0.0936759
-0.0201165
0.093044
-0.0200719
0.0924433
-0.0200046
0.0918551
-0.0199132
0.0912933
-0.0197962
0.0907517
-0.0196521
0.0902303
-0.0194791
0.0897386
-0.0192756
0.0892631
-0.0190396
0.088825
-0.0187695
0.0883955
-0.018463
0.0880162
-0.0181181
0.0876354
-0.0177324
0.0873197
-0.0173036
0.0869885
-0.0168294
0.0867424
-0.0163067
0.0864556
-0.0157335
0.0862851
-0.0151057
0.0860547
-0.0144213
0.0859647
-0.0136761
0.0857925
-0.0128678
0.0857899
-0.0119911
0.0856939
-0.0110438
0.085781
-0.0100203
0.0857674
-0.00891776
0.0859513
-0.00772987
0.0860341
-0.00645351
0.0863143
-0.0050819
0.0865025
-0.00361067
0.0868883
-0.00203264
0.0871953
-0.000342778
0.0876893
0.00146681
0.0881273
0.00340272
0.0887411
0.00547279
0.0893066
0.00768519
0.0900503
0.0100501
0.0907612
0.0125758
0.0916449
0.0152733
0.0925032
0.0181538
0.0935486
0.0212306
0.094583
0.0245151
0.0958028
0.0280232
0.0970381
0.0317692
0.0984613
0.0357706
0.0999219
0.0400439
0.101567
0.0446105
0.103281
0.049491
0.105185
0.0547093
0.107184
0.0602897
0.109379
0.066262
0.111706
0.0726569
0.114247
0.0795081
0.116953
0.0868522
0.119895
0.0947323
0.123052
0.103194
0.126482
0.112288
0.130175
0.122069
0.134192
0.132604
0.138544
0.143961
0.14329
0.156219
0.148457
0.169467
0.154116
0.183806
0.160325
0.199349
0.167165
0.216224
0.174723
0.234575
0.183118
0.254571
0.192489
0.276404
0.203003
0.300289
0.21487
0.326481
0.22836
0.355273
0.243807
0.387003
0.261644
0.422062
0.282436
0.460908
0.306927
0.504067
0.336105
0.552142
0.371321
0.605813
0.414428
0.665824
0.468018
0.732937
0.535772
0.807813
0.622971
0.89077
0.737271
0.98128
0.889715
1.0769
1.09575
1.17116
1.37525
1.24959
1.74806
1.28289
2.21534
1.21704
2.70769
0.967717
0.406691
0.190862
-0.00273861
-0.191163
0.190611
-0.00277717
0.190322
-0.00284034
0.190063
-0.00290487
0.189772
-0.00297081
0.189499
-0.00303816
0.189206
-0.00310697
0.188916
-0.00317726
0.188615
-0.00324905
0.188308
-0.00332238
0.188
-0.00339728
0.187675
-0.00347376
0.187357
-0.00355187
0.187014
-0.00363163
0.186687
-0.00371306
0.186326
-0.00379621
0.185989
-0.00388109
0.185608
-0.00396774
0.185261
-0.00405619
0.184862
-0.00414647
0.184504
-0.0042386
0.184086
-0.00433263
0.183716
-0.00442857
0.183279
-0.00452646
0.182897
-0.00462634
0.18244
-0.00472822
0.182045
-0.00483215
0.181569
-0.00493815
0.18116
-0.00504624
0.180664
-0.00515647
0.180242
-0.00526886
0.179726
-0.00538344
0.179288
-0.00550024
0.178752
-0.00561928
0.1783
-0.0057406
0.177743
-0.00586422
0.177275
-0.00599017
0.176698
-0.00611847
0.176214
-0.00624916
0.175615
-0.00638224
0.175116
-0.00651776
0.174496
-0.00665572
0.173979
-0.00679616
0.173338
-0.00693908
0.172804
-0.00708452
0.172142
-0.00723248
0.17159
-0.00738298
0.170906
-0.00753604
0.170337
-0.00769165
0.169632
-0.00784986
0.169043
-0.00801064
0.168317
-0.00817401
0.16771
-0.00833997
0.166962
-0.00850852
0.166336
-0.00867966
0.165567
-0.00885338
0.164921
-0.00902967
0.164133
-0.00920852
0.163467
-0.00938991
0.162658
-0.00957383
0.161973
-0.00976023
0.161145
-0.00994911
0.16044
-0.0101404
0.159593
-0.0103341
0.158868
-0.0105302
0.158003
-0.0107285
0.15726
-0.0109291
0.156376
-0.0111319
0.155615
-0.0113367
0.154715
-0.0115436
0.153936
-0.0117525
0.153018
-0.0119632
0.152223
-0.0121757
0.15129
-0.0123898
0.150479
-0.0126054
0.149531
-0.0128225
0.148706
-0.0130408
0.147744
-0.0132603
0.146905
-0.0134807
0.145931
-0.0137018
0.14508
-0.0139236
0.144094
-0.0141458
0.143233
-0.0143682
0.142237
-0.0145906
0.141366
-0.0148127
0.140362
-0.0150343
0.139483
-0.0152552
0.138472
-0.0154749
0.137588
-0.0156933
0.136572
-0.0159099
0.135683
-0.0161246
0.134666
-0.0163368
0.133773
-0.0165462
0.132756
-0.0167525
0.131862
-0.0169551
0.130849
-0.0171536
0.129954
-0.0173476
0.128947
-0.0175365
0.128055
-0.0177198
0.127058
-0.017897
0.126169
-0.0180674
0.125185
-0.0182304
0.124302
-0.0183854
0.123335
-0.0185316
0.122459
-0.0186684
0.121513
-0.018795
0.120649
-0.0189105
0.119727
-0.0190141
0.118873
-0.0191051
0.11798
-0.0191824
0.117141
-0.019245
0.116281
-0.0192919
0.115461
-0.0193221
0.114637
-0.0193344
0.113841
-0.0193276
0.113056
-0.0193004
0.112293
-0.0192513
0.111552
-0.0191792
0.110825
-0.0190823
0.11013
-0.0189593
0.109445
-0.0188085
0.108799
-0.0186282
0.108161
-0.0184166
0.107568
-0.0181717
0.106982
-0.0178916
0.106447
-0.0175741
0.105914
-0.0172173
0.105442
-0.0168184
0.104964
-0.0163755
0.104561
-0.0158854
0.104141
-0.015346
0.103813
-0.0147539
0.10345
-0.0141069
0.103205
-0.0134004
0.102912
-0.0126325
0.102756
-0.0117983
0.102539
-0.0108951
0.10248
-0.00991752
0.102354
-0.00886278
0.102396
-0.007725
0.102371
-0.00650052
0.102523
-0.00518289
0.102612
-0.00376809
0.102878
-0.002249
0.103094
-0.000620396
0.103486
0.00112527
0.103838
0.00299399
0.104364
0.00499462
0.104868
0.00713425
0.105541
0.0094219
0.106199
0.0118668
0.107035
0.0144802
0.107872
0.0172716
0.108885
0.0202538
0.109918
0.0234391
0.111135
0.026842
0.112392
0.0304759
0.113833
0.0343584
0.115343
0.0385062
0.117044
0.0429388
0.118838
0.0476754
0.120829
0.0527401
0.122947
0.0581569
0.125277
0.0639528
0.127766
0.0701562
0.130486
0.0768012
0.133408
0.0839228
0.136593
0.0915602
0.140024
0.0997557
0.143759
0.108559
0.147803
0.118022
0.152209
0.128204
0.156995
0.13917
0.162223
0.150993
0.167933
0.163756
0.174195
0.177548
0.181069
0.192471
0.18865
0.208643
0.197035
0.226191
0.206348
0.24526
0.216733
0.266016
0.228375
0.288646
0.241497
0.313361
0.256373
0.340397
0.27335
0.370025
0.292872
0.402544
0.315497
0.438285
0.341957
0.477613
0.373199
0.520903
0.410481
0.568535
0.455476
0.620836
0.510424
0.677983
0.57835
0.739863
0.663346
0.805759
0.770835
0.873778
0.907765
0.939929
1.08235
0.996533
1.30228
1.02966
1.56936
1.01581
1.86696
0.919402
2.13777
0.696907
0.278721
0.206821
-0.0024932
-0.207015
0.20656
-0.00252926
0.206332
-0.0025872
0.206058
-0.00264642
0.205811
-0.00270695
0.205527
-0.0027688
0.205262
-0.002832
0.204968
-0.00289658
0.204692
-0.00296256
0.204388
-0.00302998
0.2041
-0.00309886
0.203783
-0.00316922
0.203485
-0.00324109
0.203154
-0.00331451
0.202847
-0.00338949
0.202501
-0.00346608
0.202183
-0.00354429
0.201821
-0.00362417
0.201493
-0.00370572
0.201115
-0.003789
0.200776
-0.00387402
0.20038
-0.00396082
0.20003
-0.00404942
0.199617
-0.00413986
0.199254
-0.00423216
0.198823
-0.00432637
0.198448
-0.00442249
0.197998
-0.00452058
0.19761
-0.00462066
0.197141
-0.00472275
0.196739
-0.00482689
0.196251
-0.00493311
0.195834
-0.00504143
0.195327
-0.0051519
0.194895
-0.00526452
0.194368
-0.00537935
0.193921
-0.00549639
0.193373
-0.00561568
0.192911
-0.00573725
0.192343
-0.00586112
0.191864
-0.00598732
0.191274
-0.00611588
0.190779
-0.0062468
0.190168
-0.00638013
0.189655
-0.00651588
0.189023
-0.00665407
0.188493
-0.00679472
0.187839
-0.00693785
0.18729
-0.00708347
0.186615
-0.00723159
0.186046
-0.00738224
0.185349
-0.00753541
0.184761
-0.00769113
0.184043
-0.00784938
0.183435
-0.00801018
0.182694
-0.00817353
0.182066
-0.00833942
0.181304
-0.00850785
0.180655
-0.00867881
0.179872
-0.00885228
0.179201
-0.00902825
0.178397
-0.0092067
0.177706
-0.00938761
0.176881
-0.00957094
0.176168
-0.00975665
0.175323
-0.00994472
0.17459
-0.0101351
0.173724
-0.0103277
0.17297
-0.0105225
0.172085
-0.0107195
0.171311
-0.0109185
0.170407
-0.0111195
0.169613
-0.0113224
0.168691
-0.0115271
0.167878
-0.0117335
0.166937
-0.0119415
0.166107
-0.0121509
0.165148
-0.0123617
0.164301
-0.0125737
0.163326
-0.0127867
0.162463
-0.0130006
0.161473
-0.0132152
0.160594
-0.0134303
0.15959
-0.0136457
0.158698
-0.0138612
0.157681
-0.0140765
0.156776
-0.0142915
0.155748
-0.0145057
0.154832
-0.014719
0.153795
-0.0149311
0.15287
-0.0151416
0.151825
-0.0153502
0.150892
-0.0155565
0.149843
-0.0157601
0.148903
-0.0159607
0.147851
-0.0161578
0.146906
-0.0163509
0.145856
-0.0165396
0.144908
-0.0167233
0.143861
-0.0169016
0.142912
-0.0170738
0.141872
-0.0172393
0.140924
-0.0173975
0.139895
-0.0175477
0.138952
-0.0176893
0.137939
-0.0178216
0.136996
-0.0179436
0.136001
-0.0180548
0.135064
-0.0181541
0.134094
-0.0182407
0.133164
-0.0183135
0.132223
-0.0183718
0.131307
-0.0184141
0.130398
-0.0184395
0.129506
-0.0184467
0.128634
-0.0184346
0.127771
-0.0184016
0.126937
-0.0183467
0.126109
-0.0182682
0.125317
-0.0181646
0.124529
-0.0180345
0.123782
-0.0178758
0.123043
-0.0176872
0.122345
-0.0174665
0.121656
-0.0172119
0.121012
-0.0169212
0.120378
-0.0165927
0.119794
-0.0162234
0.119217
-0.0158116
0.1187
-0.0153544
0.118178
-0.0148496
0.117735
-0.0142936
0.117278
-0.0136843
0.116917
-0.0130177
0.116529
-0.0122913
0.116259
-0.0115005
0.115953
-0.0106427
0.115781
-0.00971293
0.115567
-0.00870793
0.115501
-0.00762207
0.115393
-0.00645193
0.11544
-0.00519133
0.115449
-0.00383591
0.115621
-0.00237894
0.115762
-0.000815528
0.116065
0.000861838
0.116351
0.00265926
0.1168
0.00458472
0.117241
0.00664541
0.117849
0.00885109
0.118465
0.0112095
0.119247
0.0137313
0.120051
0.0164264
0.12103
0.0193074
0.122047
0.022385
0.123242
0.0256739
0.124501
0.0291874
0.125945
0.0329419
0.127474
0.0369526
0.129194
0.0412393
0.131031
0.045821
0.133072
0.0507196
0.135258
0.0559572
0.137663
0.0615611
0.140252
0.0675586
0.143087
0.0739804
0.146142
0.0808591
0.149477
0.0882334
0.153085
0.0961432
0.157019
0.104633
0.161286
0.113751
0.16594
0.123554
0.171008
0.134101
0.176547
0.145459
0.1826
0.1577
0.189239
0.17091
0.196534
0.185178
0.204575
0.200604
0.21346
0.217303
0.223318
0.235402
0.234298
0.255039
0.246579
0.276368
0.260381
0.299562
0.275977
0.324808
0.293699
0.352311
0.313967
0.382286
0.337305
0.414957
0.364375
0.450539
0.396034
0.489242
0.433372
0.531195
0.477777
0.576405
0.531068
0.624676
0.595552
0.675369
0.674116
0.727156
0.770286
0.777566
0.88801
0.822203
1.0309
0.853649
1.20039
0.860139
1.39186
0.824321
1.58771
0.72356
1.74923
0.535373
0.210496
0.215844
-0.00227443
-0.216066
0.215602
-0.00230814
0.215396
-0.00236132
0.215145
-0.00241567
0.214923
-0.00247124
0.214661
-0.00252803
0.214428
-0.00258609
0.214156
-0.00264542
0.213908
-0.00270605
0.213626
-0.00276802
0.213368
-0.00283134
0.213075
-0.00289605
0.212806
-0.00296216
0.2125
-0.00302971
0.212221
-0.00309873
0.211902
-0.00316923
0.211613
-0.00324125
0.211281
-0.00331482
0.210982
-0.00338997
0.210634
-0.00346671
0.210325
-0.00354509
0.209963
-0.00362513
0.209643
-0.00370686
0.209264
-0.00379031
0.208933
-0.00387551
0.208538
-0.00396249
0.208195
-0.00405128
0.207783
-0.00414191
0.207428
-0.0042344
0.206998
-0.0043288
0.20663
-0.00442512
0.206182
-0.0045234
0.205801
-0.00462366
0.205335
-0.00472595
0.204939
-0.00483028
0.204454
-0.00493669
0.204044
-0.0050452
0.20354
-0.00515584
0.203114
-0.00526864
0.202591
-0.00538363
0.20215
-0.00550083
0.201607
-0.00562028
0.201149
-0.00574198
0.200585
-0.00586599
0.200111
-0.00599229
0.199527
-0.00612094
0.199034
-0.00625195
0.198429
-0.00638533
0.197919
-0.00652111
0.197293
-0.0066593
0.196764
-0.00679992
0.196116
-0.00694299
0.195568
-0.0070885
0.194899
-0.00723649
0.19433
-0.00738695
0.19364
-0.00753988
0.193051
-0.0076953
0.192339
-0.0078532
0.191729
-0.00801357
0.190995
-0.00817642
0.190365
-0.00834173
0.189609
-0.00850949
0.188957
-0.00867968
0.18818
-0.00885229
0.187506
-0.00902727
0.186708
-0.00920462
0.186012
-0.00938428
0.185193
-0.00956622
0.184476
-0.00975038
0.183636
-0.00993673
0.182897
-0.0101252
0.182036
-0.0103157
0.181276
-0.0105082
0.180395
-0.0107026
0.179614
-0.0108988
0.178714
-0.0110968
0.177913
-0.0112963
0.176993
-0.0114973
0.176173
-0.0116997
0.175234
-0.0119033
0.174395
-0.012108
0.173438
-0.0123136
0.172581
-0.01252
0.171608
-0.0127269
0.170734
-0.0129342
0.169745
-0.0131416
0.168855
-0.013349
0.167851
-0.013556
0.166948
-0.0137624
0.165931
-0.013968
0.165013
-0.0141724
0.163985
-0.0143754
0.163056
-0.0145765
0.162019
-0.0147754
0.161079
-0.0149718
0.160036
-0.0151652
0.159087
-0.0153551
0.158039
-0.0155413
0.157083
-0.0157231
0.156034
-0.0159
0.155073
-0.0160715
0.154026
-0.016237
0.153063
-0.016396
0.152022
-0.0165478
0.151051
-0.0166918
0.15002
-0.0168273
0.149046
-0.0169534
0.148031
-0.0170695
0.147054
-0.0171746
0.146059
-0.017268
0.145086
-0.0173485
0.144115
-0.0174152
0.143157
-0.017467
0.142213
-0.0175029
0.141275
-0.0175216
0.140361
-0.017522
0.13945
-0.0175028
0.138568
-0.0174627
0.137688
-0.0174002
0.136842
-0.0173137
0.136003
-0.017202
0.135196
-0.017063
0.134401
-0.0168954
0.133638
-0.016697
0.132892
-0.0164664
0.132178
-0.016201
0.131484
-0.0158992
0.130826
-0.0155586
0.130183
-0.0151771
0.129588
-0.0147518
0.129002
-0.0142806
0.12848
-0.0137602
0.127955
-0.0131882
0.127514
-0.0125609
0.127062
-0.0118757
0.12671
-0.0111284
0.126338
-0.0103162
0.126085
-0.00943411
0.125808
-0.00847919
0.12566
-0.00744611
0.125488
-0.00633115
0.125458
-0.00512839
0.125405
-0.00383374
0.1255
-0.00244065
0.125581
-0.000944094
0.125814
0.000663124
0.126043
0.00238665
0.126426
0.00423478
0.126819
0.00621417
0.127367
0.00833367
0.127937
0.0106015
0.12867
0.0130283
0.129441
0.0156228
0.130377
0.0183971
0.13137
0.0213623
0.132537
0.0245319
0.133782
0.0279183
0.135206
0.0315378
0.136734
0.0354055
0.138453
0.0395395
0.140302
0.0439572
0.142355
0.0486807
0.144571
0.0537314
0.147011
0.059134
0.149647
0.0649137
0.152535
0.0711011
0.155663
0.0777271
0.159078
0.0848261
0.162781
0.0924353
0.166821
0.100598
0.171212
0.109358
0.176004
0.118767
0.181225
0.128878
0.186931
0.139754
0.193172
0.151461
0.200014
0.164071
0.207525
0.177665
0.215797
0.192333
0.224929
0.208173
0.235043
0.225291
0.246282
0.243803
0.258822
0.263836
0.272868
0.285525
0.288677
0.309012
0.306555
0.334444
0.326882
0.361961
0.35012
0.391701
0.376873
0.423786
0.407847
0.458249
0.443949
0.495065
0.486312
0.534038
0.536292
0.574663
0.595564
0.616057
0.666089
0.656629
0.749966
0.693696
0.849133
0.723006
0.964659
0.738097
1.09525
0.729564
1.23473
0.684839
1.36872
0.589543
1.47213
0.43196
0.169504
0.220137
-0.00207893
-0.220295
0.219919
-0.00211044
0.219746
-0.0021593
0.219515
-0.00220926
0.219327
-0.00226034
0.219085
-0.00231257
0.21888
-0.00236595
0.218628
-0.00242053
0.218412
-0.00247632
0.218151
-0.00253334
0.217922
-0.00259163
0.217652
-0.0026512
0.217413
-0.00271208
0.217132
-0.00277429
0.216882
-0.00283787
0.21659
-0.00290284
0.216331
-0.00296922
0.216028
-0.00303704
0.215758
-0.00310633
0.215442
-0.00317711
0.215163
-0.00324942
0.214834
-0.00332328
0.214545
-0.00339871
0.214201
-0.00347576
0.213902
-0.00355444
0.213543
-0.00363478
0.213233
-0.00371682
0.212859
-0.00380058
0.212538
-0.00388609
0.212148
-0.00397339
0.211814
-0.00406249
0.211409
-0.00415343
0.211062
-0.00424624
0.21064
-0.00434094
0.21028