/*--------------------------------*- C++ -*----------------------------------*\
  =========                 |
  \\      /  F ield         | OpenFOAM: The Open Source CFD Toolbox
   \\    /   O peration     | Website:  https://openfoam.org
    \\  /    A nd           | Version:  7
     \\/     M anipulation  |
\*---------------------------------------------------------------------------*/
FoamFile
{
    version     2.0;
    format      ascii;
    class       volVectorField;
    location    "0";
    object      U;
}
// * * * * * * * * * * * * * * * * * * * * * * * * * * * * * * * * * * * * * //

dimensions      [0 1 -1 0 0 0 0];

internalField   nonuniform List<vector> 
76362
(
(0.0813354 -0.891122 5.6464e-23)
(0.0809307 -0.885593 -3.36258e-21)
(0.0808078 -0.884171 0)
(0.0806692 -0.882718 -3.17942e-21)
(0.0805708 -0.881232 -3.20645e-21)
(0.0804546 -0.879714 0)
(0.0803585 -0.878162 0)
(0.0802385 -0.876577 -3.02738e-21)
(0.0801357 -0.874957 -6.05929e-21)
(0.0800094 -0.873303 -3.01426e-21)
(0.0798891 -0.871613 0)
(0.079746 -0.869887 -2.85142e-21)
(0.0796103 -0.868125 -2.86797e-21)
(0.0794548 -0.866325 0)
(0.0793001 -0.864487 -2.67439e-21)
(0.0791272 -0.862611 -2.66794e-21)
(0.0789575 -0.860695 0)
(0.078772 -0.85874 0)
(0.0785851 -0.856743 0)
(0.0783837 -0.854705 2.7617e-27)
(0.0781832 -0.852625 2.75498e-27)
(0.0779698 -0.850503 0)
(0.0777538 -0.848336 -2.74112e-27)
(0.0775256 -0.846126 -2.73398e-27)
(0.0772971 -0.84387 -5.45338e-27)
(0.0770575 -0.841568 0)
(0.0768148 -0.83922 0)
(0.0765612 -0.836824 0)
(0.0763069 -0.834381 0)
(0.0760427 -0.831888 0)
(0.075775 -0.829347 -5.35953e-27)
(0.0754974 -0.826753 -5.34277e-27)
(0.0752189 -0.82411 -5.32568e-27)
(0.0749312 -0.821413 0)
(0.0746399 -0.818665 -6.23297e-22)
(0.0743394 -0.815861 -5.82343e-22)
(0.0740379 -0.813005 3.69813e-22)
(0.0737278 -0.810091 3.29746e-22)
(0.0734141 -0.807123 -1.12594e-22)
(0.0730916 -0.804097 -7.14037e-23)
(0.0727679 -0.801014 1.48038e-22)
(0.072436 -0.79787 4.671e-22)
(0.0721005 -0.794669 3.17337e-22)
(0.0717567 -0.791406 0)
(0.0714112 -0.788083 0)
(0.0710582 -0.784696 -8.06264e-22)
(0.0707012 -0.781249 9.60414e-23)
(0.0703369 -0.777735 -9.67467e-23)
(0.06997 -0.774159 -1.10269e-21)
(0.0695964 -0.770515 -9.95867e-27)
(0.0692185 -0.766808 9.91076e-27)
(0.0688344 -0.76303 1.58972e-21)
(0.0684469 -0.759187 1.61706e-21)
(0.0680539 -0.755272 -1.95233e-26)
(0.0676562 -0.751291 1.94204e-26)
(0.0672536 -0.747236 0)
(0.0668471 -0.743113 1.9209e-26)
(0.0664362 -0.738913 0)
(0.0660207 -0.734645 -1.89901e-26)
(0.0656013 -0.730298 1.88778e-26)
(0.0651782 -0.725881 0)
(0.0647516 -0.721384 2.78174e-21)
(0.0643207 -0.716814 2.78204e-21)
(0.0638867 -0.712163 0)
(0.0634495 -0.707438 3.08405e-21)
(0.0630096 -0.702629 3.07048e-21)
(0.062566 -0.697745 0)
(0.0621198 -0.692775 0)
(0.0616712 -0.687729 3.55547e-26)
(0.0612204 -0.682594 0)
(0.0607665 -0.677382 -3.50198e-26)
(0.0603104 -0.67208 0)
(0.0598529 -0.666699 3.44675e-26)
(0.0593936 -0.661225 -3.72717e-21)
(0.0589319 -0.655672 -3.6638e-21)
(0.0584685 -0.650024 -3.36054e-26)
(0.0580043 -0.644295 0)
(0.0575388 -0.638468 0)
(0.0570716 -0.63256 0)
(0.0566032 -0.626552 0)
(0.0561344 -0.620461 0)
(0.0556649 -0.614269 3.1757e-26)
(0.0551942 -0.607992 3.82089e-21)
(0.054723 -0.601612 3.68748e-21)
(0.0542511 -0.595145 3.74693e-21)
(0.0537794 -0.588573 7.29004e-21)
(0.0533066 -0.581914 3.5356e-21)
(0.0528345 -0.575147 0)
(0.0523605 -0.568291 3.47966e-21)
(0.0518882 -0.561326 6.67633e-21)
(0.0514141 -0.554271 3.18925e-21)
(0.0509429 -0.547104 0)
(0.0504675 -0.539846 3.04123e-21)
(0.0499961 -0.532474 2.81174e-21)
(0.0495219 -0.525009 0)
(0.0490533 -0.517429 0)
(0.0485777 -0.509753 0)
(0.0481092 -0.501961 -1.03803e-25)
(0.0476365 -0.494071 0)
(0.0471728 -0.486064 0)
(0.0466984 -0.477956 0)
(0.0462347 -0.469729 -9.71377e-26)
(0.0457651 -0.461399 0)
(0.0453089 -0.45295 -8.07167e-22)
(0.0448354 -0.444393 6.87669e-23)
(0.0443777 -0.435717 -6.64784e-23)
(0.0439114 -0.42693 1.48044e-22)
(0.0434647 -0.418023 4.25266e-22)
(0.0429908 -0.409001 1.57429e-21)
(0.0425413 -0.39986 1.18171e-21)
(0.0420763 -0.390597 1.49391e-21)
(0.0416437 -0.381218 1.95622e-21)
(0.0411541 -0.37171 0)
(0.0406956 -0.362091 2.70024e-21)
(0.0402059 -0.352334 3.15129e-21)
(0.0397522 -0.342465 0)
(0.0393116 -0.332448 4.04115e-21)
(0.0389028 -0.322314 3.51878e-23)
(0.0384759 -0.312025 -5.12131e-21)
(0.0380668 -0.301614 -5.64453e-21)
(0.0376982 -0.29104 -6.27985e-21)
(0.0373458 -0.280336 0)
(0.0370062 -0.269464 -7.55965e-21)
(0.0366704 -0.258456 -8.26524e-21)
(0.0363427 -0.247273 -8.96024e-21)
(0.0360146 -0.235955 -9.70217e-21)
(0.0357226 -0.224451 0)
(0.0354282 -0.212802 1.12629e-20)
(0.0351651 -0.200959 1.21098e-20)
(0.0348923 -0.188963 0)
(0.0346715 -0.176763 0)
(0.0344398 -0.164403 0)
(0.0342307 -0.151826 1.25588e-25)
(0.0340156 -0.139077 1.15042e-25)
(0.0338126 -0.126097 -1.77351e-20)
(0.0336106 -0.112933 -3.75144e-20)
(0.0334033 -0.0995224 -3.95997e-20)
(0.0332113 -0.0859148 -2.08696e-20)
(0.0329938 -0.072041 5.95908e-26)
(0.0328008 -0.0579557 4.79398e-26)
(0.0325955 -0.0435817 -2.41905e-20)
(0.0324233 -0.0289835 4.57335e-24)
(0.0322461 -0.0140711 5.3106e-20)
(0.0321018 0.00108116 2.77912e-20)
(0.0319552 0.0165783 0)
(0.0318434 0.0323393 3.03595e-20)
(0.0317637 0.0484801 3.17314e-20)
(0.0317122 0.0649218 3.31238e-20)
(0.0317048 0.0817807 3.46137e-20)
(0.0317169 0.0989829 1.63754e-25)
(0.0317664 0.116643 0)
(0.0318339 0.134699 3.92547e-20)
(0.0319481 0.153257 4.09768e-20)
(0.0320751 0.172267 -4.26158e-20)
(0.0322338 0.191832 -4.44492e-20)
(0.0324139 0.211913 0)
(0.0326244 0.23261 4.79986e-20)
(0.0328626 0.2539 9.99066e-20)
(0.0331419 0.275884 5.1991e-20)
(0.0334595 0.298554 5.38421e-20)
(0.0338242 0.32201 5.61175e-20)
(0.03423 0.346263 0)
(0.0346895 0.371414 6.02481e-20)
(0.0352009 0.397492 2.99057e-22)
(0.0357727 0.424604 -3.36092e-22)
(0.0364031 0.452801 3.78387e-22)
(0.0371053 0.482198 -1.40023e-19)
(0.0378826 0.512871 -7.28726e-20)
(0.038744 0.544952 -7.50849e-20)
(0.0396945 0.578547 -7.84751e-20)
(0.0407494 0.613809 -8.07806e-20)
(0.0419188 0.650881 -8.45432e-20)
(0.0432157 0.68995 -8.69501e-20)
(0.0446542 0.731208 -9.1704e-22)
(0.046257 0.774887 9.47178e-20)
(0.0480457 0.821243 0)
(0.0500445 0.870577 5.761e-24)
(0.052285 0.923232 0)
(0.0548086 0.979611 6.48252e-24)
(0.0576624 1.04018 1.14058e-19)
(0.0609014 1.10549 2.39861e-19)
(0.0645985 1.1762 1.2641e-19)
(0.0688463 1.2531 -6.50316e-20)
(0.073758 1.33712 -6.952e-20)
(0.0794793 1.42943 -7.16886e-20)
(0.086209 1.53146 -1.52872e-19)
(0.0942052 1.64499 -8.19095e-20)
(0.103814 1.77228 0)
(0.115528 1.91625 9.11623e-20)
(0.130038 2.08074 1.00977e-19)
(0.14835 2.27089 0)
(0.171994 2.49375 3.30045e-23)
(0.203373 2.75928 3.65188e-23)
(0.246458 3.08203 -4.07903e-23)
(0.308251 3.48404 -8.93142e-20)
(0.402127 4.00042 -1.1305e-19)
(0.55635 4.69033 0)
(0.838503 5.66075 7.49195e-23)
(1.43442 7.12241 0)
(2.93374 9.53385 -3.27728e-19)
(7.4725 14.0105 -8.23968e-19)
(23.764 23.5522 0)
(0.235621 -0.87533 1.37802e-19)
(0.234548 -0.866021 1.37574e-19)
(0.234108 -0.864737 -2.79411e-27)
(0.23366 -0.863424 1.39494e-27)
(0.233231 -0.862081 1.36501e-19)
(0.23279 -0.860708 1.36223e-19)
(0.232361 -0.859304 2.77656e-27)
(0.231912 -0.85787 2.77193e-27)
(0.231473 -0.856405 -1.35165e-19)
(0.231011 -0.854909 -6.35972e-23)
(0.230551 -0.85338 1.34534e-19)
(0.230067 -0.85182 2.75238e-27)
(0.229583 -0.850226 -1.3374e-19)
(0.229074 -0.848599 -1.33425e-19)
(0.228563 -0.846937 -1.32974e-19)
(0.228028 -0.845241 -1.32641e-19)
(0.227488 -0.843508 5.45104e-27)
(0.226926 -0.84174 0)
(0.226357 -0.839934 -5.42794e-27)
(0.225767 -0.838091 2.70802e-27)
(0.225169 -0.836209 -1.30434e-19)
(0.224551 -0.834288 -7.44779e-23)
(0.223925 -0.832327 1.29582e-19)
(0.223279 -0.830325 -1.29026e-19)
(0.222624 -0.828282 -7.72583e-23)
(0.221949 -0.826196 2.56158e-19)
(0.221266 -0.824067 1.27613e-19)
(0.220563 -0.821895 -1.06227e-26)
(0.219851 -0.819677 0)
(0.21912 -0.817414 0)
(0.21838 -0.815104 -1.25409e-19)
(0.217621 -0.812748 -1.24936e-19)
(0.216852 -0.810343 -5.23672e-27)
(0.216065 -0.80789 0)
(0.215267 -0.805386 -1.23135e-19)
(0.214452 -0.802833 -1.2263e-19)
(0.213626 -0.800227 0)
(0.212783 -0.79757 0)
(0.211928 -0.794858 -1.2072e-19)
(0.211057 -0.792094 -9.08078e-23)
(0.210175 -0.789273 1.19552e-19)
(0.209275 -0.786397 0)
(0.208364 -0.783464 1.18169e-19)
(0.207437 -0.780473 1.17603e-19)
(0.206498 -0.777423 2.00959e-26)
(0.205543 -0.774314 -1.16169e-19)
(0.204576 -0.771144 -1.15585e-19)
(0.203593 -0.767913 0)
(0.202598 -0.764619 1.14104e-19)
(0.201587 -0.761262 1.13498e-19)
(0.200564 -0.75784 9.79484e-27)
(0.199527 -0.754353 -1.11972e-19)
(0.198476 -0.750799 -1.11349e-19)
(0.197412 -0.747179 1.10518e-19)
(0.196335 -0.743489 1.09884e-19)
(0.195244 -0.739732 0)
(0.194141 -0.735903 1.90226e-26)
(0.193024 -0.732003 -3.78436e-26)
(0.191895 -0.728031 -1.88192e-26)
(0.190754 -0.723986 1.87146e-26)
(0.189601 -0.719867 1.05251e-19)
(0.188437 -0.715673 1.04586e-19)
(0.18726 -0.711402 1.83893e-26)
(0.186073 -0.707055 0)
(0.184874 -0.702629 -3.6325e-26)
(0.183666 -0.698124 1.01368e-19)
(0.182446 -0.693539 1.00691e-19)
(0.181218 -0.688873 0)
(0.179979 -0.684125 3.53684e-26)
(0.178731 -0.679294 -9.82271e-20)
(0.177474 -0.674378 -1.94989e-19)
(0.176209 -0.669378 -1.93417e-19)
(0.174936 -0.664292 -9.59768e-20)
(0.173654 -0.659119 3.40756e-26)
(0.172366 -0.653858 9.43047e-20)
(0.17107 -0.648508 9.36321e-20)
(0.169768 -0.643068 6.64916e-26)
(0.16846 -0.637538 -9.19768e-20)
(0.167147 -0.631915 -9.1314e-20)
(0.165827 -0.6262 0)
(0.164503 -0.620391 -8.96857e-20)
(0.163174 -0.614488 -8.90367e-20)
(0.161842 -0.608489 6.29162e-26)
(0.160506 -0.602393 -1.86858e-25)
(0.159166 -0.5962 6.16456e-26)
(0.157824 -0.589908 -8.59884e-20)
(0.15648 -0.583517 -8.53721e-20)
(0.155133 -0.577024 0)
(0.153785 -0.570432 5.89811e-26)
(0.152437 -0.563736 0)
(0.151087 -0.556937 0)
(0.149738 -0.550033 -8.18369e-20)
(0.148388 -0.543025 -8.12755e-20)
(0.147041 -0.535909 0)
(0.145692 -0.528687 -1.0933e-25)
(0.144347 -0.521355 0)
(0.143002 -0.513916 -1.06275e-25)
(0.141665 -0.506363 1.04713e-25)
(0.140324 -0.498702 2.06258e-25)
(0.138993 -0.490924 2.03041e-25)
(0.13766 -0.483036 -7.64509e-20)
(0.13634 -0.475029 -7.60137e-20)
(0.135016 -0.46691 0)
(0.133707 -0.458669 0)
(0.132395 -0.450313 -7.44855e-20)
(0.131102 -0.441832 -6.89558e-23)
(0.1298 -0.433235 1.47306e-19)
(0.12852 -0.424509 1.46513e-19)
(0.127237 -0.415665 7.29013e-20)
(0.125977 -0.406688 -1.68202e-25)
(0.124699 -0.397592 1.6444e-25)
(0.123443 -0.388356 -1.6062e-25)
(0.1222 -0.379 7.15399e-20)
(0.120979 -0.369494 7.13361e-20)
(0.119784 -0.359865 7.10738e-20)
(0.118604 -0.350077 7.09338e-20)
(0.117458 -0.340165 7.07519e-20)
(0.116322 -0.330087 7.06784e-20)
(0.115237 -0.319884 1.32301e-25)
(0.114161 -0.309508 0)
(0.1131 -0.299004 0)
(0.112052 -0.288325 0)
(0.111016 -0.277516 7.06645e-20)
(0.109999 -0.266527 1.95875e-23)
(0.108975 -0.255403 -7.08855e-20)
(0.10798 -0.244093 0)
(0.106995 -0.232637 -3.84865e-25)
(0.106049 -0.220993 -3.65602e-25)
(0.105105 -0.209193 0)
(0.104206 -0.197205 7.19871e-20)
(0.103277 -0.185047 1.44578e-19)
(0.102397 -0.172703 -3.56867e-25)
(0.101548 -0.16017 -7.30548e-20)
(0.100751 -0.14745 1.21967e-25)
(0.0999786 -0.134521 -7.40407e-20)
(0.0992545 -0.121396 -7.46066e-20)
(0.0985724 -0.108042 -2.68109e-25)
(0.0979332 -0.0944756 0)
(0.097357 -0.0806605 6.67206e-26)
(0.0968254 -0.066607 -7.75107e-20)
(0.0963289 -0.0522875 7.73602e-24)
(0.0958704 -0.0377046 -6.72309e-24)
(0.0954465 -0.0228361 5.19645e-24)
(0.0950693 -0.00767423 8.13257e-20)
(0.0947517 0.00779599 2.57964e-26)
(0.0944825 0.0235949 8.3622e-20)
(0.0942802 0.0397289 8.48884e-20)
(0.0941332 0.056221 9.30102e-26)
(0.0940462 0.0730791 0)
(0.0940179 0.0903297 4.48316e-25)
(0.0940766 0.107986 0)
(0.0941979 0.126067 -4.17124e-25)
(0.0943874 0.144602 9.40565e-20)
(0.0946523 0.163606 1.91818e-19)
(0.0950064 0.183121 9.78752e-20)
(0.0954412 0.203162 -6.72209e-25)
(0.095984 0.223785 -1.01946e-19)
(0.0966263 0.245008 -1.2524e-22)
(0.0973903 0.266892 2.13258e-19)
(0.0982622 0.289465 1.0921e-19)
(0.0992712 0.312793 2.06989e-24)
(0.10041 0.336913 0)
(0.101702 0.361898 -2.39485e-24)
(0.10314 0.387801 -1.20425e-19)
(0.104756 0.414706 -1.23994e-19)
(0.106553 0.442677 0)
(0.108555 0.471815 1.30727e-19)
(0.110771 0.502205 4.58764e-22)
(0.113236 0.533966 -1.39152e-19)
(0.115968 0.567207 1.42956e-19)
(0.118999 0.602072 2.95764e-19)
(0.122355 0.638705 1.53182e-19)
(0.126087 0.677284 4.48189e-24)
(0.130233 0.717993 1.63329e-19)
(0.134849 0.761058 9.92087e-22)
(0.139993 0.806723 -3.52866e-19)
(0.145748 0.855278 -1.84153e-19)
(0.152202 0.907049 0)
(0.159461 0.962419 1.91063e-23)
(0.167656 1.02183 -1.04066e-19)
(0.176958 1.08581 -9.35181e-22)
(0.187566 1.15496 1.04033e-21)
(0.199727 1.23003 -1.22207e-19)
(0.213765 1.31188 -1.28119e-19)
(0.230097 1.40158 -1.37631e-19)
(0.249253 1.50044 0)
(0.271944 1.61007 0)
(0.29913 1.73248 0)
(0.332125 1.87023 1.84023e-19)
(0.372772 2.02663 2.04988e-19)
(0.423734 2.20599 0)
(0.488941 2.41408 3.19501e-23)
(0.574411 2.65869 2.91546e-19)
(0.689721 2.95061 5.16988e-19)
(0.850777 3.30497 4.14105e-19)
(1.08533 3.74328 3.08852e-21)
(1.44442 4.29579 -3.37354e-19)
(2.02691 5.00248 2.29431e-19)
(3.03178 5.90334 6.7768e-19)
(4.85824 6.97666 5.37101e-19)
(8.20248 7.8496 -2.07779e-22)
(13.4001 6.42626 3.40207e-22)
(0.363432 -0.825802 2.6683e-27)
(0.362187 -0.817302 0)
(0.361572 -0.816234 2.50968e-19)
(0.360952 -0.815141 5.00974e-19)
(0.360343 -0.814021 5.68736e-23)
(0.35972 -0.812875 -4.98958e-19)
(0.359106 -0.811703 -2.49008e-19)
(0.358471 -0.810505 -2.48433e-19)
(0.357837 -0.80928 -6.02322e-23)
(0.357178 -0.808028 2.47442e-19)
(0.356517 -0.806748 0)
(0.355829 -0.80544 2.46287e-19)
(0.355135 -0.804103 2.45789e-19)
(0.354414 -0.802738 4.99937e-33)
(0.353685 -0.801342 5.17854e-27)
(0.35293 -0.799917 0)
(0.352164 -0.798459 5.15991e-27)
(0.351373 -0.796971 0)
(0.350571 -0.79545 5.14045e-27)
(0.349744 -0.793896 0)
(0.348905 -0.792308 0)
(0.348041 -0.790686 0)
(0.347163 -0.789028 5.09896e-27)
(0.346262 -0.787335 -1.0176e-26)
(0.345346 -0.785604 1.01537e-26)
(0.344407 -0.783837 1.01308e-26)
(0.343452 -0.782031 -1.01075e-26)
(0.342474 -0.780186 -1.00836e-26)
(0.341481 -0.778301 0)
(0.340464 -0.776376 0)
(0.339431 -0.774409 0)
(0.338375 -0.7724 -9.98301e-27)
(0.337302 -0.770347 0)
(0.336206 -0.768251 0)
(0.335093 -0.766109 2.29706e-19)
(0.333957 -0.763923 2.28895e-19)
(0.332803 -0.761689 2.27904e-19)
(0.331627 -0.759408 2.27065e-19)
(0.330432 -0.757078 2.26043e-19)
(0.329215 -0.7547 2.25178e-19)
(0.327979 -0.75227 0)
(0.326721 -0.74979 0)
(0.325444 -0.747256 0)
(0.324144 -0.74467 -1.92492e-26)
(0.322825 -0.742029 -2.20116e-19)
(0.321483 -0.739334 -2.19171e-19)
(0.320123 -0.736582 1.90402e-26)
(0.318739 -0.733774 -2.1696e-19)
(0.317336 -0.730906 -2.15977e-19)
(0.315911 -0.72798 0)
(0.314465 -0.724992 -3.74811e-26)
(0.312998 -0.721945 0)
(0.311511 -0.718833 1.85814e-26)
(0.310002 -0.71566 -2.10278e-19)
(0.308472 -0.71242 -2.09217e-19)
(0.306922 -0.709116 0)
(0.305351 -0.705745 -3.6486e-26)
(0.30376 -0.702306 -3.63083e-26)
(0.302149 -0.698797 -3.61269e-26)
(0.300517 -0.695219 3.59419e-26)
(0.298866 -0.691569 0)
(0.297196 -0.687847 1.06682e-25)
(0.295506 -0.684051 0)
(0.293797 -0.680181 0)
(0.29207 -0.676234 -1.96864e-19)
(0.290324 -0.672211 -1.95686e-19)
(0.288561 -0.668109 -3.45404e-26)
(0.28678 -0.663928 -1.92991e-19)
(0.284982 -0.659667 -1.05116e-22)
(0.283167 -0.655324 1.05315e-22)
(0.281335 -0.650897 -3.78202e-19)
(0.279488 -0.646388 -1.87827e-19)
(0.277626 -0.641792 -1.86389e-19)
(0.275748 -0.637111 -3.70208e-19)
(0.273856 -0.632341 -1.83814e-19)
(0.27195 -0.627484 1.2976e-25)
(0.27003 -0.622536 -1.81015e-19)
(0.268098 -0.617497 -1.79768e-19)
(0.266153 -0.612366 6.3317e-26)
(0.264196 -0.607142 1.25554e-25)
(0.262229 -0.601822 1.24454e-25)
(0.260251 -0.596408 0)
(0.258263 -0.590896 6.10971e-26)
(0.256265 -0.585286 -1.21034e-25)
(0.254259 -0.579577 0)
(0.252245 -0.573768 1.68853e-19)
(0.250223 -0.567857 1.67611e-19)
(0.248195 -0.561844 0)
(0.246161 -0.555726 1.14921e-25)
(0.244122 -0.549504 -2.27269e-25)
(0.242077 -0.543175 0)
(0.24003 -0.53674 1.60899e-19)
(0.237978 -0.530195 1.59692e-19)
(0.235927 -0.523541 0)
(0.233871 -0.516776 -1.57033e-19)
(0.231817 -0.509899 -1.55857e-19)
(0.22976 -0.502909 1.54513e-19)
(0.227708 -0.495804 3.06636e-19)
(0.225653 -0.488584 1.52132e-19)
(0.223607 -0.481247 2.06231e-31)
(0.221558 -0.473791 0)
(0.21952 -0.466216 1.48474e-19)
(0.217481 -0.458521 1.4739e-19)
(0.215457 -0.450702 1.86405e-25)
(0.213429 -0.442762 -1.83121e-25)
(0.21142 -0.434695 -3.5957e-25)
(0.209411 -0.426503 1.76397e-25)
(0.207424 -0.418182 0)
(0.205431 -0.409734 -1.69462e-25)
(0.203461 -0.401152 -1.65912e-25)
(0.201501 -0.392441 1.62309e-25)
(0.199564 -0.38359 -1.37916e-19)
(0.197642 -0.374606 -2.74068e-19)
(0.195745 -0.365479 -1.36187e-19)
(0.193871 -0.356215 1.35306e-19)
(0.19202 -0.346805 1.34553e-19)
(0.190202 -0.337254 -5.57938e-25)
(0.188409 -0.327556 -1.33046e-19)
(0.186642 -0.317711 -1.32408e-19)
(0.184901 -0.30772 1.31739e-19)
(0.183185 -0.297576 1.31174e-19)
(0.181501 -0.28728 1.30597e-19)
(0.179834 -0.276826 2.60185e-19)
(0.178202 -0.266213 1.29634e-19)
(0.176595 -0.255435 0)
(0.175031 -0.244487 0)
(0.173484 -0.233367 1.28476e-19)
(0.171988 -0.222068 8.83495e-24)
(0.170502 -0.210592 -1.27961e-19)
(0.169071 -0.198925 0)
(0.167661 -0.187075 0)
(0.166309 -0.175017 -1.27563e-19)
(0.16497 -0.162767 -2.55043e-19)
(0.163698 -0.1503 -1.27557e-19)
(0.16247 -0.137629 1.27658e-19)
(0.161308 -0.124731 -6.62764e-24)
(0.160199 -0.111616 7.93177e-24)
(0.159159 -0.0982624 2.56784e-19)
(0.15819 -0.0846736 1.28791e-19)
(0.157289 -0.0708371 1.17189e-25)
(0.156455 -0.0567476 9.38798e-26)
(0.155692 -0.0423894 1.40251e-25)
(0.15501 -0.0277559 0)
(0.154398 -0.0128271 4.24375e-26)
(0.153881 0.00240321 1.32973e-19)
(0.153444 0.0179558 2.67976e-19)
(0.153103 0.0338372 1.35113e-19)
(0.152844 0.0500728 1.65681e-25)
(0.1527 0.0666692 4.41187e-25)
(0.152649 0.0836555 2.76795e-25)
(0.152689 0.10104 1.4064e-19)
(0.152837 0.118852 1.42334e-19)
(0.153108 0.137107 1.44083e-19)
(0.153496 0.155839 2.92045e-19)
(0.154018 0.175067 1.48112e-19)
(0.154683 0.194831 -1.5024e-19)
(0.155512 0.215156 -1.52701e-19)
(0.156497 0.236083 -1.56228e-24)
(0.157673 0.257649 0)
(0.159033 0.279898 0)
(0.160604 0.302874 2.00426e-24)
(0.162379 0.326632 0)
(0.164396 0.351226 -6.97267e-24)
(0.16666 0.376719 0)
(0.1692 0.403177 2.66801e-24)
(0.172024 0.430678 0)
(0.175178 0.459304 0)
(0.178682 0.489149 6.47385e-24)
(0.182575 0.520312 -3.44314e-24)
(0.186887 0.552911 -7.31773e-24)
(0.191677 0.58707 0)
(0.196992 0.622934 0)
(0.202891 0.660662 2.22929e-19)
(0.209441 0.700436 4.62055e-19)
(0.216735 0.742458 2.39869e-19)
(0.224866 0.786962 0)
(0.233949 0.83421 1.10407e-23)
(0.244119 0.884507 -1.34334e-19)
(0.255552 0.9382 -1.41012e-19)
(0.268448 0.995691 1.46907e-19)
(0.28305 1.05745 1.55104e-19)
(0.299663 1.12402 0)
(0.318675 1.19606 0)
(0.340561 1.27432 1.8203e-19)
(0.365929 1.35971 1.95276e-19)
(0.395572 1.45334 3.84697e-23)
(0.430526 1.55654 4.12013e-23)
(0.472161 1.67092 0)
(0.522346 1.7985 0)
(0.583645 1.94174 0)
(0.659665 2.10375 0)
(0.755595 2.28836 0)
(0.879077 2.50035 0)
(1.04166 2.74554 0)
(1.26127 3.03058 2.92976e-19)
(1.5664 3.36199 2.62879e-21)
(2.00311 3.74285 -4.55354e-19)
(2.64587 4.16297 2.94849e-19)
(3.6095 4.57223 4.0022e-19)
(5.04272 4.81129 2.5471e-22)
(7.0168 4.44946 -4.7111e-22)
(9.04506 2.42074 1.28155e-22)
(0.464409 -0.765828 -2.54667e-23)
(0.463217 -0.758232 1.71634e-19)
(0.462551 -0.757372 -4.89438e-27)
(0.461868 -0.756491 -6.2682e-33)
(0.461187 -0.755589 4.88286e-27)
(0.460488 -0.754666 0)
(0.459783 -0.753721 -5.19662e-33)
(0.459057 -0.752754 -4.86453e-27)
(0.458326 -0.751764 4.85814e-27)
(0.457572 -0.750753 5.99467e-33)
(0.456809 -0.749717 0)
(0.456021 -0.748659 -1.68583e-19)
(0.455223 -0.747577 -1.6828e-19)
(0.454399 -0.74647 1.67905e-19)
(0.453564 -0.745338 1.67588e-19)
(0.452703 -0.74418 -1.67198e-19)
(0.45183 -0.742996 -1.66866e-19)
(0.450931 -0.741786 9.58731e-27)
(0.450019 -0.740547 9.57131e-27)
(0.44908 -0.739282 -9.55494e-27)
(0.448127 -0.737986 -9.5382e-27)
(0.447148 -0.736662 0)
(0.446154 -0.735307 -1.64476e-19)
(0.445134 -0.733923 -1.64089e-19)
(0.444097 -0.732506 1.89347e-26)
(0.443034 -0.731057 -1.63186e-19)
(0.441955 -0.729575 -1.62777e-19)
(0.440849 -0.72806 0)
(0.439725 -0.72651 1.87797e-26)
(0.438575 -0.724926 -1.87388e-26)
(0.437406 -0.723304 0)
(0.436211 -0.721647 0)
(0.434996 -0.719951 0)
(0.433755 -0.718218 0)
(0.432494 -0.716445 0)
(0.431206 -0.714633 0)
(0.429897 -0.712778 3.15598e-19)
(0.428561 -0.710883 3.14592e-19)
(0.427205 -0.708944 0)
(0.425821 -0.706962 1.82745e-26)
(0.424416 -0.704935 0)
(0.422982 -0.702863 0)
(0.421527 -0.700744 0)
(0.420045 -0.698578 0)
(0.418539 -0.696362 -3.06398e-19)
(0.417005 -0.694098 -8.86865e-23)
(0.415449 -0.691783 3.04003e-19)
(0.413864 -0.689417 3.56418e-26)
(0.412256 -0.686997 3.01354e-19)
(0.410619 -0.684524 3.00138e-19)
(0.408959 -0.681996 -3.52582e-26)
(0.40727 -0.679413 2.97376e-19)
(0.405556 -0.676772 2.96107e-19)
(0.403815 -0.674073 -3.48486e-26)
(0.402049 -0.671315 6.9412e-26)
(0.400256 -0.668497 0)
(0.398436 -0.665616 -3.44114e-26)
(0.39659 -0.662673 0)
(0.394718 -0.659666 -3.41038e-26)
(0.39282 -0.656594 1.01835e-25)
(0.390895 -0.653454 0)
(0.388945 -0.650248 1.34467e-25)
(0.386969 -0.646972 2.81397e-19)
(0.384968 -0.643626 2.79942e-19)
(0.382941 -0.640208 -2.78271e-19)
(0.38089 -0.636718 -2.76785e-19)
(0.378813 -0.633153 0)
(0.376713 -0.629513 0)
(0.374588 -0.625796 -6.47054e-26)
(0.372439 -0.622001 -6.4313e-26)
(0.370267 -0.618126 2.68535e-19)
(0.368072 -0.614171 2.66967e-19)
(0.365854 -0.610133 -1.26172e-25)
(0.363614 -0.606012 -2.6349e-19)
(0.361352 -0.601805 -2.61887e-19)
(0.359069 -0.597513 2.60071e-19)
(0.356766 -0.593132 5.16794e-19)
(0.354442 -0.588663 2.56714e-19)
(0.352098 -0.584103 0)
(0.349736 -0.579452 1.19827e-25)
(0.347355 -0.574707 -2.51365e-19)
(0.344956 -0.569867 -4.99306e-19)
(0.342541 -0.564931 -4.95771e-19)
(0.340109 -0.559899 -2.46163e-19)
(0.337661 -0.554767 2.44288e-19)
(0.335199 -0.549535 2.42608e-19)
(0.332722 -0.544201 2.40729e-19)
(0.330233 -0.538764 2.39045e-19)
(0.32773 -0.533222 -2.37167e-19)
(0.325217 -0.527575 -9.42748e-23)
(0.322691 -0.52182 2.33703e-19)
(0.320158 -0.515957 0)
(0.317613 -0.509984 -2.30063e-19)
(0.315063 -0.503899 -4.56686e-19)
(0.312504 -0.497701 -8.83675e-23)
(0.309941 -0.491389 2.24873e-19)
(0.30737 -0.48496 -2.2304e-19)
(0.3048 -0.478415 -2.21392e-19)
(0.302222 -0.47175 2.19582e-19)
(0.299648 -0.464966 4.35827e-19)
(0.297069 -0.458059 2.16252e-19)
(0.294497 -0.45103 -1.86541e-25)
(0.291919 -0.443876 2.12823e-19)
(0.289352 -0.436595 2.11249e-19)
(0.286784 -0.429188 -2.09542e-19)
(0.28423 -0.421649 -2.08005e-19)
(0.281673 -0.413982 2.06341e-19)
(0.279133 -0.406179 2.04841e-19)
(0.276598 -0.398245 2.03232e-19)
(0.274084 -0.390172 2.01782e-19)
(0.271576 -0.381963 0)
(0.269091 -0.373613 0)
(0.266619 -0.365122 0)
(0.264172 -0.356488 2.94878e-25)
(0.261744 -0.347709 8.62848e-25)
(0.259346 -0.338783 -1.933e-19)
(0.256967 -0.329708 -1.92063e-19)
(0.254621 -0.320485 1.90791e-19)
(0.252301 -0.311106 1.89634e-19)
(0.250017 -0.301576 -9.04221e-31)
(0.24776 -0.291884 -9.65757e-25)
(0.245542 -0.282036 4.66586e-25)
(0.243358 -0.272021 -1.85304e-19)
(0.241217 -0.261841 -1.84378e-19)
(0.239109 -0.25149 0)
(0.23705 -0.240965 3.9864e-25)
(0.235027 -0.230263 -1.81836e-19)
(0.233057 -0.219378 -1.81125e-19)
(0.231124 -0.208309 1.80446e-19)
(0.229251 -0.197046 3.59702e-19)
(0.227409 -0.185593 1.793e-19)
(0.225633 -0.173933 -1.78826e-19)
(0.223902 -0.162074 2.28309e-24)
(0.222242 -0.149995 3.56161e-19)
(0.220629 -0.137708 1.77807e-19)
(0.219095 -0.125188 8.28413e-25)
(0.217629 -0.112448 -1.77533e-19)
(0.216245 -0.0994626 -1.77516e-19)
(0.214935 -0.0862426 -1.77604e-19)
(0.213717 -0.0727649 -1.77772e-19)
(0.212589 -0.0590351 0)
(0.211552 -0.0450302 1.48987e-25)
(0.210616 -0.0307521 -2.03487e-25)
(0.20978 -0.0161788 5.35261e-26)
(0.209062 -0.00130756 4.32129e-27)
(0.208448 0.0138815 -4.59351e-26)
(0.207965 0.0293962 1.82046e-19)
(0.207599 0.0452571 1.83145e-19)
(0.207361 0.0614756 4.06822e-25)
(0.207252 0.0780723 0)
(0.207291 0.0950631 1.25817e-24)
(0.207471 0.112476 7.44312e-25)
(0.207802 0.130326 1.90695e-19)
(0.208299 0.148646 3.85394e-19)
(0.208981 0.167455 1.94893e-19)
(0.209845 0.186791 0)
(0.210924 0.206677 -1.99713e-19)
(0.212219 0.227153 -2.02583e-19)
(0.213758 0.248251 0)
(0.215535 0.270015 0)
(0.217592 0.292486 0)
(0.219933 0.315715 0)
(0.222589 0.339752 -4.49661e-24)
(0.225568 0.36466 0)
(0.228917 0.390499 0)
(0.232655 0.417344 -2.3405e-19)
(0.236824 0.44527 -2.39866e-19)
(0.241452 0.474366 -1.22666e-19)
(0.246598 0.504725 -1.26072e-19)
(0.252309 0.536457 -1.29248e-19)
(0.258643 0.569677 -2.66178e-19)
(0.265663 0.604519 -2.74189e-19)
(0.273458 0.641129 -3.71633e-22)
(0.282115 0.679673 1.46429e-19)
(0.291739 0.720337 0)
(0.302451 0.763331 0)
(0.31441 0.80889 1.07056e-23)
(0.327787 0.857287 -1.69649e-19)
(0.342791 0.908826 -3.54926e-19)
(0.359676 0.963861 -3.71514e-19)
(0.378759 1.02279 -1.95482e-19)
(0.400417 1.08609 2.87487e-23)
(0.425115 1.1543 3.05541e-23)
(0.453443 1.22804 0)
(0.486146 1.30804 -3.46237e-23)
(0.524166 1.39518 3.69301e-23)
(0.568727 1.49044 1.18356e-22)
(0.621437 1.59503 3.05401e-19)
(0.68442 1.71032 6.68535e-19)
(0.760545 1.8379 3.68952e-19)
(0.853734 1.97959 0)
(0.969429 2.13737 0)
(1.11531 2.31319 -2.60223e-19)
(1.30233 2.50853 -6.02767e-19)
(1.54631 2.72343 -3.54889e-19)
(1.87012 2.95424 -1.56397e-22)
(2.30613 3.1888 0)
(2.89752 3.39653 0)
(3.69285 3.50871 0)
(4.71782 3.38383 -2.57283e-19)
(5.88925 2.76575 -1.6081e-19)
(6.83775 1.22105 1.85623e-19)
(0.543049 -0.704656 2.08163e-19)
(0.541818 -0.697917 4.51015e-27)
(0.541131 -0.697228 -4.5057e-27)
(0.540432 -0.696522 4.50114e-27)
(0.539729 -0.695799 6.46469e-33)
(0.539008 -0.695059 0)
(0.538284 -0.694301 -2.06321e-19)
(0.537538 -0.693525 -4.1203e-19)
(0.536782 -0.692731 -2.05705e-19)
(0.536002 -0.691918 4.47137e-27)
(0.535213 -0.691086 0)
(0.5344 -0.690235 -8.92101e-27)
(0.533574 -0.689364 -8.90974e-27)
(0.532724 -0.688472 2.03948e-19)
(0.531861 -0.687559 2.0361e-19)
(0.530974 -0.686625 0)
(0.530073 -0.685669 2.02822e-19)
(0.529148 -0.684691 4.04889e-19)
(0.528208 -0.683688 2.02062e-19)
(0.527244 -0.682663 -8.82316e-27)
(0.526264 -0.681613 -8.80959e-27)
(0.525259 -0.680539 -1.75914e-26)
(0.524238 -0.679439 8.78146e-27)
(0.523191 -0.678313 0)
(0.522127 -0.67716 -8.75201e-27)
(0.521037 -0.675981 -1.99003e-19)
(0.519928 -0.674773 -1.98571e-19)
(0.518794 -0.673537 -1.9806e-19)
(0.51764 -0.67227 -1.97611e-19)
(0.51646 -0.670975 -1.97081e-19)
(0.51526 -0.669648 -1.96614e-19)
(0.514032 -0.66829 0)
(0.512784 -0.666899 0)
(0.511509 -0.665476 0)
(0.510212 -0.664019 -1.71643e-26)
(0.508886 -0.662528 1.71258e-26)
(0.507539 -0.661 -1.70863e-26)
(0.506163 -0.659437 3.40918e-26)
(0.504765 -0.657836 -1.92205e-19)
(0.503337 -0.656198 -3.94821e-23)
(0.501886 -0.65452 3.82064e-19)
(0.500405 -0.652804 1.9044e-19)
(0.4989 -0.651046 1.89778e-19)
(0.497365 -0.649247 1.89186e-19)
(0.495805 -0.647405 -1.88503e-19)
(0.494215 -0.64552 -3.7574e-19)
(0.492598 -0.643589 -4.22868e-23)
(0.490951 -0.641614 4.26686e-23)
(0.489278 -0.639592 -4.30112e-23)
(0.487574 -0.637522 1.85171e-19)
(0.485842 -0.635403 1.8442e-19)
(0.484079 -0.633236 3.67447e-19)
(0.482288 -0.631016 1.83017e-19)
(0.480467 -0.628745 0)
(0.478616 -0.62642 -1.81481e-19)
(0.476734 -0.624042 -3.61483e-19)
(0.474823 -0.621607 -1.79991e-19)
(0.472881 -0.619116 0)
(0.470909 -0.616566 0)
(0.468906 -0.613958 -1.77561e-19)
(0.466873 -0.611289 -4.68182e-23)
(0.46481 -0.608558 3.51882e-19)
(0.462716 -0.605763 1.75127e-19)
(0.460592 -0.602905 -1.74232e-19)
(0.458437 -0.59998 -4.77821e-23)
(0.456253 -0.596989 4.79689e-23)
(0.454039 -0.593928 -4.8138e-23)
(0.451795 -0.590798 4.82906e-23)
(0.449521 -0.587595 -1.69888e-19)
(0.447218 -0.584321 -2.41668e-25)
(0.444885 -0.580971 -1.68014e-19)
(0.442524 -0.577547 -4.85863e-23)
(0.440134 -0.574044 1.66201e-19)
(0.437717 -0.570464 -1.65209e-19)
(0.43527 -0.566802 -1.64305e-19)
(0.432797 -0.563059 1.63296e-19)
(0.430296 -0.559232 4.87375e-23)
(0.427769 -0.555321 -1.61401e-19)
(0.425216 -0.551323 0)
(0.422637 -0.547237 -1.13165e-25)
(0.420033 -0.543061 1.58383e-19)
(0.417404 -0.538795 1.57428e-19)
(0.414752 -0.534435 2.21035e-25)
(0.412076 -0.529981 -2.19193e-25)
(0.409378 -0.525431 1.54339e-19)
(0.406658 -0.520783 3.06678e-19)
(0.403917 -0.516036 1.52334e-19)
(0.401156 -0.511188 0)
(0.398375 -0.506237 0)
(0.395577 -0.501183 -2.98372e-19)
(0.392759 -0.496021 -2.96383e-19)
(0.389926 -0.490753 2.94212e-19)
(0.387077 -0.485375 8.79802e-23)
(0.384214 -0.479887 -2.90132e-19)
(0.381336 -0.474285 0)
(0.378448 -0.468569 -2.85879e-19)
(0.375546 -0.462738 -8.25483e-23)
(0.372637 -0.456788 2.81806e-19)
(0.369716 -0.450719 0)
(0.366792 -0.444529 0)
(0.363857 -0.438216 -2.75535e-19)
(0.360922 -0.431778 -2.73568e-19)
(0.357979 -0.425214 -3.51725e-25)
(0.355042 -0.418521 -2.6944e-19)
(0.352096 -0.411699 -2.675e-19)
(0.349159 -0.404744 -2.65443e-19)
(0.346221 -0.397656 -2.63536e-19)
(0.343296 -0.390432 -3.22955e-25)
(0.340365 -0.383071 0)
(0.337452 -0.375572 2.57684e-19)
(0.33454 -0.367931 5.58983e-23)
(0.331651 -0.360149 -2.53998e-19)
(0.328767 -0.352221 2.52114e-19)
(0.325909 -0.344148 4.88712e-23)
(0.323061 -0.335924 -4.51065e-23)
(0.320245 -0.327551 4.29747e-23)
(0.317448 -0.319023 -2.45189e-19)
(0.314686 -0.31034 -2.43511e-19)
(0.31195 -0.301497 -4.83859e-19)
(0.30925 -0.292494 -2.40396e-19)
(0.306583 -0.283326 -2.38863e-19)
(0.303957 -0.273993 -2.3744e-19)
(0.301366 -0.26449 0)
(0.298821 -0.254814 -8.43098e-25)
(0.296319 -0.244963 2.33392e-19)
(0.293867 -0.234931 1.53573e-23)
(0.291461 -0.224718 -4.62034e-19)
(0.289111 -0.214317 -2.29928e-19)
(0.286806 -0.203728 2.28885e-19)
(0.284564 -0.192941 2.27931e-19)
(0.282372 -0.18196 2.27031e-19)
(0.280251 -0.17077 2.2622e-19)
(0.278178 -0.159379 0)
(0.276185 -0.147766 4.88909e-25)
(0.274256 -0.135942 4.49785e-25)
(0.272414 -0.123884 4.0989e-25)
(0.270644 -0.111603 2.23336e-19)
(0.26897 -0.0990754 2.23029e-19)
(0.267387 -0.0863097 -2.85567e-25)
(0.265905 -0.0732838 2.42467e-25)
(0.264525 -0.0600034 -2.22773e-19)