/*--------------------------------*- C++ -*----------------------------------*\
  =========                 |
  \\      /  F ield         | OpenFOAM: The Open Source CFD Toolbox
   \\    /   O peration     | Website:  https://openfoam.org
    \\  /    A nd           | Version:  7
     \\/     M anipulation  |
\*---------------------------------------------------------------------------*/
FoamFile
{
    version     2.0;
    format      ascii;
    class       volScalarField;
    location    "0.9975";
    object      nut;
}
// * * * * * * * * * * * * * * * * * * * * * * * * * * * * * * * * * * * * * //

dimensions      [0 2 -1 0 0 0 0];

internalField   nonuniform List<scalar> 
76363
(
0.151294
0.151281
0.151296
0.151311
0.151256
0.151271
0.151286
0.151302
0.151317
0.15124
0.151254
0.151269
0.151284
0.1513
0.151315
0.151213
0.151227
0.151242
0.151257
0.151272
0.151288
0.151304
0.15132
0.15119
0.151205
0.151219
0.151234
0.151249
0.151265
0.151281
0.151297
0.151313
0.151161
0.151175
0.15119
0.151205
0.15122
0.151235
0.151251
0.151266
0.151283
0.151299
0.151316
0.151134
0.151148
0.151163
0.151177
0.151192
0.151207
0.151223
0.151239
0.151255
0.151272
0.151289
0.151306
0.151103
0.151117
0.151131
0.151146
0.151161
0.151176
0.151191
0.151207
0.151224
0.15124
0.151257
0.151275
0.151293
0.151074
0.151088
0.151102
0.151117
0.151132
0.151147
0.151163
0.151179
0.151195
0.151212
0.151229
0.151247
0.151265
0.151284
0.151048
0.151062
0.151076
0.151091
0.151106
0.151121
0.151137
0.151153
0.15117
0.151187
0.151204
0.151222
0.151241
0.151259
0.151279
0.151023
0.151037
0.151052
0.151067
0.151082
0.151098
0.151114
0.15113
0.151147
0.151165
0.151182
0.151201
0.151219
0.151238
0.151258
0.151278
0.151
0.151015
0.15103
0.151045
0.151061
0.151077
0.151093
0.15111
0.151127
0.151145
0.151163
0.151182
0.151201
0.15122
0.15124
0.151261
0.151282
0.150983
0.150998
0.151013
0.151029
0.151045
0.151061
0.151078
0.151095
0.151113
0.151131
0.151149
0.151168
0.151187
0.151207
0.151228
0.151248
0.15127
0.151292
0.150971
0.150986
0.151002
0.151018
0.151034
0.151051
0.151068
0.151086
0.151104
0.151122
0.151141
0.15116
0.15118
0.1512
0.151221
0.151242
0.151264
0.151286
0.15131
0.150966
0.150981
0.150997
0.151014
0.15103
0.151047
0.151065
0.151083
0.151101
0.15112
0.151139
0.151158
0.151178
0.151199
0.15122
0.151241
0.151263
0.151286
0.15131
0.150967
0.150983
0.151
0.151016
0.151033
0.151051
0.151069
0.151087
0.151105
0.151124
0.151144
0.151164
0.151184
0.151205
0.151226
0.151248
0.15127
0.151293
0.151317
0.151342
0.150979
0.150995
0.151012
0.151029
0.151047
0.151064
0.151082
0.151101
0.15112
0.151139
0.151159
0.151179
0.151199
0.15122
0.151241
0.151263
0.151286
0.151309
0.151334
0.151359
0.151384
0.151004
0.151021
0.151038
0.151055
0.151073
0.151091
0.151109
0.151128
0.151147
0.151166
0.151186
0.151206
0.151227
0.151248
0.151269
0.151291
0.151314
0.151337
0.151361
0.151387
0.151412
0.151045
0.151062
0.151079
0.151096
0.151114
0.151132
0.151151
0.15117
0.151189
0.151208
0.151228
0.151248
0.151269
0.15129
0.151311
0.151333
0.151356
0.151379
0.151404
0.151429
0.151454
0.151481
0.151104
0.151121
0.151138
0.151156
0.151174
0.151192
0.15121
0.151229
0.151248
0.151267
0.151287
0.151307
0.151328
0.151349
0.15137
0.151392
0.151415
0.151438
0.151462
0.151487
0.151513
0.151539
0.151183
0.1512
0.151217
0.151235
0.151253
0.151271
0.151289
0.151308
0.151327
0.151346
0.151366
0.151385
0.151406
0.151427
0.151448
0.151469
0.151492
0.151515
0.151539
0.151563
0.151589
0.151615
0.151642
0.151283
0.1513
0.151317
0.151334
0.151352
0.15137
0.151388
0.151406
0.151425
0.151444
0.151464
0.151483
0.151503
0.151524
0.151545
0.151566
0.151588
0.151611
0.151634
0.151659
0.151684
0.15171
0.151736
0.151405
0.151422
0.151439
0.151456
0.151473
0.151491
0.151509
0.151527
0.151545
0.151564
0.151583
0.151602
0.151622
0.151642
0.151662
0.151683
0.151705
0.151727
0.15175
0.151774
0.151799
0.151824
0.15185
0.151877
0.151554
0.15157
0.151586
0.151603
0.15162
0.151637
0.151654
0.151672
0.15169
0.151708
0.151726
0.151745
0.151764
0.151784
0.151804
0.151824
0.151845
0.151867
0.151889
0.151912
0.151936
0.151961
0.151986
0.152012
0.151733
0.151749
0.151765
0.151781
0.151797
0.151813
0.15183
0.151847
0.151864
0.151881
0.151899
0.151917
0.151935
0.151954
0.151973
0.151992
0.152013
0.152033
0.152055
0.152077
0.1521
0.152124
0.152148
0.152173
0.151947
0.151962
0.151977
0.151992
0.152007
0.152023
0.152038
0.152054
0.152071
0.152087
0.152104
0.152121
0.152138
0.152155
0.152173
0.152192
0.152211
0.152231
0.152251
0.152272
0.152294
0.152317
0.15234
0.152364
0.152388
0.152196
0.15221
0.152224
0.152238
0.152252
0.152266
0.152281
0.152296
0.152311
0.152326
0.152342
0.152357
0.152373
0.15239
0.152407
0.152424
0.152442
0.15246
0.152479
0.152499
0.152519
0.15254
0.152562
0.152585
0.152608
0.152478
0.15249
0.152503
0.152516
0.152529
0.152542
0.152556
0.152569
0.152583
0.152597
0.152611
0.152625
0.15264
0.152655
0.152671
0.152686
0.152703
0.15272
0.152738
0.152756
0.152775
0.152794
0.152815
0.152835
0.152857
0.152789
0.152801
0.152812
0.152824
0.152836
0.152848
0.15286
0.152872
0.152884
0.152896
0.152909
0.152922
0.152936
0.152949
0.152963
0.152977
0.152992
0.153008
0.153024
0.153041
0.153058
0.153076
0.153095
0.153114
0.153134
0.153155
0.153128
0.153138
0.153148
0.153159
0.153169
0.153179
0.15319
0.1532
0.153211
0.153222
0.153233
0.153245
0.153257
0.153269
0.153281
0.153294
0.153307
0.153321
0.153336
0.153351
0.153367
0.153383
0.153401
0.153418
0.153437
0.153456
0.153492
0.1535
0.153509
0.153517
0.153526
0.153535
0.153544
0.153553
0.153562
0.153571
0.153581
0.153591
0.153601
0.153612
0.153623
0.153634
0.153646
0.153658
0.153671
0.153684
0.153699
0.153714
0.153729
0.153746
0.153763
0.153781
0.153878
0.153885
0.153892
0.153899
0.153905
0.153913
0.15392
0.153927
0.153935
0.153942
0.15395
0.153959
0.153967
0.153976
0.153985
0.153995
0.154005
0.154016
0.154027
0.154039
0.154052
0.154065
0.15408
0.154095
0.154111
0.154127
0.154286
0.154291
0.154296
0.154301
0.154306
0.154311
0.154316
0.154322
0.154328
0.154334
0.15434
0.154346
0.154353
0.15436
0.154368
0.154376
0.154384
0.154394
0.154403
0.154414
0.154425
0.154437
0.15445
0.154464
0.154478
0.154494
0.15451
0.154713
0.154716
0.154719
0.154722
0.154726
0.154729
0.154732
0.154736
0.154739
0.154743
0.154747
0.154752
0.154757
0.154763
0.154768
0.154775
0.154781
0.154789
0.154797
0.154807
0.154816
0.154827
0.154838
0.154851
0.154864
0.154879
0.154894
0.15516
0.15516
0.155161
0.155161
0.155162
0.155163
0.155164
0.155165
0.155166
0.155168
0.15517
0.155173
0.155175
0.155179
0.155183
0.155187
0.155193
0.155198
0.155205
0.155212
0.155221
0.15523
0.155241
0.155252
0.155265
0.155278
0.155293
0.155612
0.15561
0.155607
0.155604
0.155602
0.1556
0.155598
0.155596
0.155595
0.155595
0.155596
0.155596
0.155597
0.155599
0.155602
0.155605
0.155609
0.155614
0.15562
0.155627
0.155635
0.155644
0.155654
0.155665
0.155677
0.15569
0.155705
0.156039
0.15603
0.156023
0.156017
0.156012
0.156008
0.156005
0.156005
0.156006
0.156007
0.156009
0.156012
0.156014
0.156018
0.156022
0.156027
0.156034
0.15604
0.156046
0.156055
0.156064
0.156074
0.156086
0.156097
0.156111
0.156125
0.156141
0.156157
0.156447
0.156428
0.156414
0.156409
0.156406
0.156406
0.156414
0.156425
0.156437
0.156447
0.156456
0.156465
0.156474
0.156482
0.15649
0.156498
0.156506
0.156515
0.156524
0.156533
0.156543
0.156555
0.156568
0.156579
0.156592
0.156605
0.15662
0.156637
0.157011
0.157066
0.157117
0.157145
0.157159
0.15717
0.157165
0.157155
0.157142
0.157131
0.157122
0.157115
0.157109
0.157105
0.157103
0.157101
0.157101
0.157102
0.157103
0.157107
0.157111
0.157117
0.157123
0.157131
0.157141
0.157152
0.157162
0.157174
0.157791
0.157823
0.157852
0.157868
0.157875
0.157876
0.157872
0.157864
0.157853
0.157841
0.157828
0.157816
0.157803
0.157792
0.157781
0.157771
0.157763
0.157755
0.157749
0.157744
0.15774
0.157738
0.157738
0.157738
0.15774
0.157744
0.157751
0.157758
0.15859
0.158574
0.158559
0.158546
0.158533
0.158521
0.158509
0.158497
0.158485
0.158474
0.158462
0.15845
0.158438
0.158427
0.158415
0.158404
0.158394
0.158384
0.158375
0.158367
0.15836
0.158354
0.158349
0.158345
0.158343
0.158342
0.158342
0.158346
0.15902
0.159018
0.159016
0.159012
0.159008
0.159004
0.158999
0.158993
0.158988
0.158982
0.158975
0.158969
0.158962
0.158955
0.158948
0.158941
0.158934
0.158927
0.15892
0.158914
0.158909
0.158904
0.158899
0.158896
0.158893
0.158891
0.15889
0.158891
0.159386
0.159388
0.15939
0.159392
0.159393
0.159394
0.159395
0.159395
0.159394
0.159394
0.159393
0.159391
0.15939
0.159388
0.159385
0.159383
0.15938
0.159377
0.159374
0.159371
0.159369
0.159367
0.159365
0.159363
0.159362
0.159361
0.159362
0.159362
0.159365
0.159683
0.159689
0.159694
0.1597
0.159704
0.159709
0.159713
0.159717
0.159721
0.159724
0.159727
0.159729
0.159731
0.159733
0.159734
0.159735
0.159736
0.159736
0.159736
0.159736
0.159736
0.159736
0.159737
0.159737
0.159738
0.159739
0.15974
0.159742
0.159745
0.159894
0.159902
0.159911
0.159919
0.159926
0.159934
0.159941
0.159948
0.159954
0.15996
0.159966
0.159971
0.159976
0.15998
0.159984
0.159988
0.159991
0.159993
0.159996
0.159998
0.16
0.160001
0.160003
0.160005
0.160006
0.160008
0.16001
0.160013
0.160016
0.159985
0.159996
0.160007
0.160017
0.160028
0.160038
0.160048
0.160057
0.160066
0.160075
0.160083
0.160091
0.160098
0.160105
0.160111
0.160117
0.160122
0.160127
0.160131
0.160135
0.160138
0.160141
0.160143
0.160145
0.160147
0.16015
0.160152
0.160154
0.160156
0.159926
0.15994
0.159953
0.159966
0.15998
0.159992
0.160005
0.160017
0.160029
0.160041
0.160052
0.160062
0.160072
0.160081
0.160089
0.160097
0.160104
0.16011
0.160116
0.16012
0.160125
0.160128
0.160131
0.160133
0.160135
0.160137
0.160138
0.160139
0.16014
0.159685
0.159703
0.159721
0.159739
0.159757
0.159774
0.159791
0.159807
0.159822
0.159837
0.159852
0.159865
0.159878
0.15989
0.159901
0.159911
0.15992
0.159928
0.159935
0.159941
0.159946
0.15995
0.159953
0.159955
0.159956
0.159956
0.159956
0.159956
0.159955
0.159241
0.159263
0.159286
0.159309
0.159331
0.159353
0.159374
0.159394
0.159414
0.159433
0.15945
0.159467
0.159483
0.159497
0.159511
0.159523
0.159533
0.159542
0.15955
0.159556
0.159561
0.159565
0.159567
0.159568
0.159568
0.159566
0.159563
0.15956
0.159555
0.158577
0.158605
0.158634
0.158661
0.158688
0.158714
0.15874
0.158764
0.158787
0.158809
0.158829
0.158849
0.158866
0.158882
0.158897
0.158909
0.15892
0.158929
0.158936
0.158941
0.158944
0.158946
0.158945
0.158942
0.158938
0.158932
0.158923
0.158916
0.158906
0.157699
0.15773
0.157762
0.157793
0.157823
0.157853
0.15788
0.157907
0.157932
0.157955
0.157976
0.157996
0.158013
0.158029
0.158042
0.158053
0.158061
0.158067
0.158071
0.158072
0.15807
0.158065
0.158058
0.158047
0.158036
0.158022
0.158006
0.15799
0.157971
0.156603
0.156636
0.156669
0.156702
0.156733
0.156763
0.15679
0.156816
0.15684
0.156862
0.156881
0.156898
0.156912
0.156923
0.156932
0.156937
0.15694
0.156939
0.156934
0.156925
0.156913
0.156897
0.156879
0.156855
0.156833
0.156805
0.156778
0.156747
0.156716
0.156685
0.155289
0.15532
0.155353
0.155384
0.155413
0.15544
0.155464
0.155486
0.155505
0.155521
0.155534
0.155544
0.15555
0.155554
0.155553
0.155548
0.155537
0.155522
0.155503
0.155478
0.155452
0.155417
0.155383
0.155342
0.155302
0.155255
0.15521
0.15516
0.155109
0.155063
0.153755
0.153783
0.153811
0.153836
0.153859
0.153879
0.153896
0.153909
0.153919
0.153925
0.153928
0.153926
0.153919
0.153906
0.153888
0.153864
0.153835
0.1538
0.153761
0.153714
0.153666
0.153608
0.153551
0.153486
0.153421
0.153351
0.15328
0.153205
0.153128
0.153057
0.152001
0.15202
0.15204
0.152056
0.152069
0.152078
0.152082
0.152082
0.152079
0.152069
0.152052
0.15203
0.152002
0.151967
0.151926
0.151879
0.151824
0.151763
0.151697
0.151622
0.151545
0.151458
0.151371
0.151276
0.151179
0.151078
0.150975
0.15087
0.150761
0.150663
0.150025
0.150033
0.150039
0.150043
0.150041
0.150034
0.15002
0.149999
0.149973
0.14994
0.1499
0.149853
0.149799
0.149737
0.149667
0.149589
0.149503
0.149409
0.14931
0.1492
0.149088
0.148966
0.148842
0.14871
0.148577
0.148439
0.148299
0.148159
0.148015
0.147887
0.147822
0.147816
0.147806
0.14779
0.147768
0.147738
0.147702
0.147658
0.147606
0.147546
0.147478
0.147401
0.147315
0.14722
0.147116
0.147002
0.146879
0.146748
0.146609
0.14646
0.146307
0.146143
0.145977
0.145804
0.145628
0.145449
0.14527
0.145092
0.144914
0.144755
0.145407
0.145379
0.145346
0.145307
0.14526
0.145206
0.145143
0.145071
0.14499
0.144899
0.144798
0.144687
0.144566
0.144434
0.14429
0.144137
0.143973
0.143799
0.143616
0.143424
0.143225
0.143017
0.142804
0.142586
0.142366
0.142144
0.141925
0.141709
0.141496
0.141308
0.142783
0.142731
0.142674
0.142609
0.142535
0.142453
0.142361
0.142259
0.142146
0.142021
0.141885
0.141738
0.141578
0.141405
0.14122
0.141024
0.140816
0.140596
0.140367
0.140128
0.13988
0.139625
0.139365
0.139101
0.138836
0.138573
0.138315
0.138062
0.137823
0.137614
0.159037
0.158979
0.158917
0.158853
0.158786
0.158724
0.158664
0.158605
0.158548
0.158495
0.158452
0.158417
0.158385
0.158355
0.158326
0.158293
0.158256
0.158215
0.158176
0.158139
0.158104
0.158072
0.158043
0.158016
0.157992
0.15797
0.157951
0.157935
0.157922
0.157911
0.157901
0.157893
0.157886
0.15788
0.157874
0.157869
0.157865
0.157862
0.157858
0.157856
0.157851
0.157852
0.157851
0.157852
0.157851
0.157852
0.157853
0.157853
0.157855
0.157855
0.157857
0.157858
0.157858
0.157858
0.157859
0.157859
0.152748
0.152807
0.152864
0.152918
0.152967
0.153009
0.153048
0.153085
0.153121
0.153155
0.153187
0.15322
0.153251
0.153284
0.153316
0.153347
0.153377
0.153407
0.153435
0.153462
0.153488
0.153512
0.153536
0.153558
0.15358
0.1536
0.15362
0.153638
0.153656
0.153672
0.153688
0.153703
0.153717
0.15373
0.153742
0.153754
0.153765
0.153776
0.153787
0.153798
0.153807
0.153818
0.153826
0.153837
0.153845
0.153856
0.153863
0.153874
0.153881
0.153891
0.1539
0.153912
0.153925
0.153938
0.153952
0.153967
0.153982
0.151196
0.151185
0.151169
0.151153
0.151136
0.151131
0.151119
0.15112
0.15112
0.151122
0.151127
0.151126
0.151128
0.151131
0.151138
0.151149
0.151164
0.151184
0.151204
0.151224
0.151243
0.151263
0.151282
0.1513
0.151319
0.151338
0.151356
0.151375
0.151393
0.151412
0.15143
0.15145
0.151468
0.151487
0.151505
0.151524
0.151542
0.151561
0.151578
0.151597
0.151615
0.151635
0.151653
0.151672
0.151693
0.151713
0.151735
0.151756
0.151781
0.151805
0.151832
0.151862
0.151904
0.151946
0.151991
0.152037
0.152085
0.152132
0.152183
0.148194
0.148275
0.148364
0.14845
0.148538
0.148624
0.148711
0.148797
0.148884
0.14897
0.149053
0.149133
0.149211
0.149287
0.14936
0.149433
0.149504
0.149575
0.149644
0.149711
0.149778
0.149844
0.149908
0.149971
0.150032
0.15009
0.150147
0.150203
0.150258
0.150311
0.150363
0.150413
0.150461
0.150509
0.150555
0.1506
0.150645
0.150689
0.150733
0.150777
0.150821
0.150864
0.150907
0.15095
0.150992
0.151034
0.151075
0.151116
0.151157
0.151196
0.151237
0.151274
0.151308
0.151343
0.151378
0.151413
0.151446
0.151481
0.151514
0.151549
0.151583
0.149876
0.149895
0.149913
0.149935
0.149962
0.149978
0.149993
0.15001
0.150033
0.150064
0.150097
0.150127
0.150157
0.150185
0.15021
0.150233
0.15026
0.150302
0.150341
0.150373
0.150407
0.150443
0.150485
0.150526
0.150561
0.150594
0.150619
0.150638
0.150647
0.150666
0.150694
0.15072
0.150747
0.150773
0.1508
0.150827
0.150853
0.150873
0.150894
0.150923
0.150947
0.150975
0.151002
0.151034
0.151076
0.151118
0.151154
0.151187
0.151222
0.151255
0.151292
0.151331
0.151369
0.151404
0.151436
0.151468
0.151496
0.151526
0.151553
0.151583
0.151611
0.151642
0.14802
0.148084
0.148161
0.148236
0.148314
0.148391
0.148464
0.148531
0.148595
0.148654
0.148712
0.148767
0.148823
0.148876
0.148933
0.148989
0.149046
0.149105
0.149163
0.14922
0.149276
0.14933
0.149383
0.149434
0.149483
0.149532
0.149579
0.149625
0.149671
0.149715
0.14976
0.149803
0.149848
0.149892
0.149936
0.149979
0.150022
0.150063
0.150104
0.150144
0.150183
0.150221
0.150259
0.150296
0.150328
0.15036
0.150392
0.150424
0.150455
0.150487
0.150518
0.15055
0.150582
0.150615
0.150648
0.15068
0.150713
0.150745
0.150777
0.150808
0.150839
0.150869
0.150899
0.150928
0.148946
0.148972
0.149006
0.149052
0.149096
0.14914
0.149182
0.149223
0.149263
0.149302
0.149338
0.149374
0.149408
0.149441
0.149473
0.149505
0.149535
0.149567
0.149599
0.149631
0.149664
0.149697
0.14973
0.149762
0.149794
0.14983
0.149864
0.149905
0.149936
0.149967
0.15
0.150034
0.150066
0.1501
0.150138
0.150173
0.150205
0.150239
0.150276
0.15031
0.150342
0.150377
0.150413
0.150442
0.150479
0.150515
0.15055
0.150582
0.150609
0.150643
0.150678
0.150707
0.150735
0.150762
0.150794
0.150822
0.150847
0.150878
0.150911
0.150941
0.150968
0.150995
0.151019
0.15104
0.151064
0.151091
0.148158
0.148201
0.148249
0.148291
0.148339
0.148388
0.148441
0.148494
0.148548
0.148601
0.148654
0.148705
0.148754
0.148801
0.148846
0.14889
0.148933
0.148975
0.149016
0.149058
0.149098
0.14914
0.149182
0.149224
0.149267
0.149304
0.149342
0.149378
0.149415
0.149451
0.149487
0.149523
0.149558
0.149593
0.149629
0.149664
0.1497
0.149735
0.149771
0.149807
0.149842
0.149877
0.149911
0.149945
0.149978
0.150011
0.150044
0.150075
0.150107
0.150138
0.15017
0.1502
0.150231
0.150262
0.150293
0.150323
0.150354
0.150385
0.150415
0.150447
0.150477
0.150509
0.150539
0.15057
0.1506
0.15063
0.15066
0.15069
0.148378
0.148421
0.148464
0.148507
0.148551
0.148595
0.148641
0.148687
0.148734
0.148781
0.148827
0.148872
0.148917
0.14896
0.149003
0.149044
0.149085
0.149126
0.149166
0.149205
0.149245
0.149285
0.149325
0.149365
0.149405
0.149445
0.149484
0.149523
0.149561
0.149599
0.149636
0.149673
0.149709
0.149744
0.149779
0.149814
0.149849
0.149883
0.149917
0.14995
0.149983
0.150016
0.150049
0.150081
0.150113
0.150145
0.150176
0.150206
0.150236
0.150266
0.150295
0.150323
0.150351
0.150379
0.150406
0.150433
0.15046
0.150486
0.150511
0.150537
0.150562
0.150587
0.150612
0.150636
0.15066
0.150684
0.150708
0.150731
0.150755
0.150778
0.14803
0.148073
0.148121
0.148167
0.148215
0.148263
0.148312
0.148361
0.148411
0.14846
0.148509
0.148557
0.148604
0.148651
0.148696
0.14874
0.148784
0.148826
0.148869
0.14891
0.148951
0.148992
0.149033
0.149073
0.149113
0.149152
0.149191
0.14923
0.149268
0.149305
0.149341
0.149377
0.149413
0.149448
0.149483
0.149517
0.149551
0.149585
0.149618
0.149651
0.149684
0.149717
0.14975
0.149783
0.149815
0.149848
0.14988
0.149912
0.149944
0.149975
0.150007
0.150038
0.150068
0.150099
0.150129
0.150159
0.150188
0.150217
0.150246
0.150274
0.150302
0.15033
0.150357
0.150384
0.150411
0.150437
0.150463
0.150489
0.150515
0.15054
0.150565
0.15059
0.148113
0.148159
0.148207
0.148255
0.148304
0.148352
0.148402
0.148451
0.148501
0.14855
0.148598
0.148645
0.148691
0.148737
0.148781
0.148824
0.148867
0.148909
0.14895
0.148991
0.149031
0.149071
0.149111
0.14915
0.149189
0.149227
0.149265
0.149302
0.149338
0.149374
0.149409
0.149444
0.149478
0.149511
0.149544
0.149577
0.149609
0.149641
0.149673
0.149705
0.149736
0.149768
0.149799
0.14983
0.149861
0.149892
0.149923
0.149953
0.149983
0.150014
0.150044
0.150073
0.150102
0.150131
0.15016
0.150188
0.150216
0.150244
0.150271
0.150298
0.150325
0.150351
0.150376
0.150402
0.150427
0.150451
0.150476
0.1505
0.150523
0.150546
0.150569
0.150592
0.150615
0.150637
0.147982
0.148027
0.148075
0.148121
0.148168
0.148215
0.148262
0.148309
0.148357
0.148404
0.148451
0.148497
0.148542
0.148586
0.148629
0.148672
0.148714
0.148755
0.148795
0.148835
0.148875
0.148914
0.148953
0.148991
0.149029
0.149067
0.149104
0.149141
0.149177
0.149213
0.149248
0.149283
0.149317
0.149351
0.149385
0.149418
0.14945
0.149483
0.149515
0.149547
0.149579
0.149611
0.149643
0.149675
0.149706
0.149738
0.149769
0.149801
0.149832
0.149863
0.149894
0.149924
0.149955
0.149985
0.150015
0.150045
0.150074
0.150103
0.150132
0.15016
0.150188
0.150216
0.150243
0.15027
0.150296
0.150323
0.150348
0.150374
0.150399
0.150424
0.150448
0.150472
0.150496
0.150519
0.150543
0.150566
0.148057
0.148105
0.148151
0.148198
0.148244
0.14829
0.148335
0.148381
0.148426
0.148471
0.148516
0.14856
0.148604
0.148647
0.148689
0.14873
0.148771
0.148811
0.14885
0.148889
0.148928
0.148966
0.149004
0.149041
0.149078
0.149115
0.149151
0.149187
0.149222
0.149257
0.149292
0.149326
0.14936
0.149393
0.149426
0.149459
0.149491
0.149523
0.149555
0.149586
0.149617
0.149648
0.149679
0.14971
0.14974
0.149771
0.149801
0.149831
0.14986
0.14989
0.149919
0.149949
0.149978
0.150006
0.150035
0.150063
0.150091
0.150119
0.150146
0.150173
0.1502
0.150226
0.150252
0.150278
0.150303
0.150329
0.150353
0.150378
0.150402
0.150426
0.150449
0.150472
0.150495
0.150517
0.150539
0.150561
0.150583
0.150604
0.148006
0.14805
0.148095
0.148139
0.148182
0.148225
0.148269
0.148311
0.148355
0.148398
0.148441
0.148483
0.148525
0.148567
0.148608
0.148649
0.148688
0.148728
0.148767
0.148805
0.148843
0.148881
0.148919
0.148956
0.148993
0.14903
0.149066
0.149103
0.149139
0.149175
0.14921
0.149245
0.14928
0.149315
0.149349
0.149382
0.149416
0.149449
0.149481
0.149514
0.149546
0.149578
0.149609
0.149641
0.149671
0.149702
0.149733
0.149763
0.149793
0.149823
0.149853
0.149883
0.149912
0.149941
0.14997
0.149998
0.150027
0.150055
0.150083
0.15011
0.150138
0.150165
0.150192
0.150218
0.150245
0.150271
0.150296
0.150322
0.150347
0.150372
0.150396
0.15042
0.150444
0.150468
0.150491
0.150514
0.150536
0.150559
0.150581
0.150602
0.148057
0.148102
0.148146
0.14819
0.148232
0.148275
0.148317
0.148361
0.148403
0.148446
0.148488
0.148531
0.148573
0.148614
0.148655
0.148695
0.148735
0.148774
0.148813
0.148851
0.148889
0.148927
0.148964
0.149002
0.149039
0.149076
0.149112
0.149149
0.149185
0.149221
0.149257
0.149292
0.149327
0.149362
0.149396
0.149429
0.149463
0.149495
0.149528
0.149559
0.149591
0.149622
0.149653
0.149683
0.149713
0.149743
0.149772
0.149801
0.14983
0.149859
0.149887
0.149915
0.149943
0.149971
0.149998
0.150025
0.150052
0.150079
0.150106
0.150132
0.150159
0.150185
0.150211
0.150236
0.150261
0.150286
0.150311
0.150336
0.15036
0.150384
0.150407
0.150431
0.150454
0.150476
0.150499
0.150521
0.150543
0.150564
0.150585
0.150606
0.150626
0.150646
0.148028
0.14807
0.148115
0.148157
0.1482
0.148242
0.148285
0.148327
0.14837
0.148412
0.148454
0.148496
0.148538
0.148579
0.148619
0.148659
0.148699
0.148738
0.148777
0.148816
0.148854
0.148892
0.14893
0.148968
0.149006
0.149043
0.149081
0.149118
0.149155
0.149192
0.149229
0.149265
0.149301
0.149336
0.149371
0.149405
0.149439
0.149472
0.149505
0.149537
0.149569
0.1496
0.149631
0.149662
0.149692
0.149722
0.149752
0.149781
0.14981
0.149838
0.149867
0.149895
0.149923
0.149951
0.149979
0.150006
0.150033
0.15006
0.150087
0.150114
0.15014
0.150167
0.150193
0.150219
0.150245
0.15027
0.150295
0.15032
0.150345
0.150369
0.150394
0.150417
0.150441
0.150464
0.150487
0.15051
0.150532
0.150554
0.150576
0.150598
0.150619
0.15064
0.15066
0.15068
0.1507
0.14806
0.148106
0.148151
0.148195
0.148239
0.148283
0.148327
0.14837
0.148413
0.148456
0.148499
0.148541
0.148583
0.148624
0.148664
0.148705
0.148745
0.148784
0.148823
0.148863
0.148901
0.14894
0.148979
0.149017
0.149055
0.149094
0.149131
0.149169
0.149206
0.149243
0.149279
0.149315
0.14935
0.149384
0.149419
0.149452
0.149485
0.149518
0.14955
0.149581
0.149612
0.149643
0.149673
0.149702
0.149732
0.149761
0.149789
0.149818
0.149845
0.149873
0.149901
0.149928
0.149955
0.149982
0.150009
0.150035
0.150062
0.150088
0.150114
0.15014
0.150165
0.150191
0.150216
0.150241
0.150266
0.150291
0.150315
0.150339
0.150363
0.150387
0.15041
0.150433
0.150456
0.150479
0.150501
0.150523
0.150544
0.150566
0.150587
0.150607
0.150628
0.150648
0.150668
0.150687
0.150706
0.150725
0.150744
0.148056
0.1481
0.148147
0.148192
0.148236
0.148281
0.148324
0.148368
0.148411
0.148453
0.148495
0.148537
0.148578
0.148619
0.14866
0.1487
0.14874
0.14878
0.14882
0.148859
0.148899
0.148938
0.148977
0.149016
0.149054
0.149093
0.149131
0.149168
0.149205
0.149242
0.149278
0.149313
0.149348
0.149383
0.149417
0.14945
0.149483
0.149515
0.149547
0.149578
0.149609
0.14964
0.14967
0.149699
0.149729
0.149758
0.149786
0.149815
0.149843
0.149871
0.149899
0.149926
0.149954
0.149981
0.150008
0.150034
0.150061
0.150087
0.150114
0.15014
0.150166
0.150191
0.150217
0.150242
0.150267
0.150292
0.150317
0.150341
0.150365
0.150389
0.150413
0.150436
0.150459
0.150482
0.150504
0.150527
0.150549
0.15057
0.150592
0.150613
0.150633
0.150654
0.150674
0.150694
0.150713
0.150732
0.150751
0.15077
0.150789
0.150807
0.148094
0.148143
0.14819
0.148236
0.148281
0.148325
0.148369
0.148412
0.148455
0.148497
0.148539
0.148581
0.148622
0.148663
0.148704
0.148744
0.148785
0.148825
0.148865
0.148905
0.148944
0.148983
0.149021
0.14906
0.149097
0.149135
0.149172
0.149208
0.149244
0.14928
0.149315
0.149349
0.149383
0.149417
0.14945
0.149482
0.149514
0.149546
0.149577
0.149607
0.149638
0.149668
0.149697
0.149726
0.149755
0.149784
0.149812
0.149841
0.149868
0.149896
0.149923
0.149951
0.149978
0.150005
0.150031
0.150058
0.150084
0.15011
0.150135
0.150161
0.150186
0.150211
0.150236
0.150261
0.150285
0.150309
0.150333
0.150356
0.15038
0.150403
0.150425
0.150448
0.15047
0.150492
0.150514
0.150535
0.150556
0.150577
0.150597
0.150617
0.150637
0.150657
0.150676
0.150695
0.150714
0.150733
0.150751
0.150769
0.150787
0.150804
0.150822
0.150839
0.148114
0.148159
0.148206
0.148251
0.148294
0.148337
0.14838
0.148421
0.148463
0.148505
0.148546
0.148587
0.148629
0.14867
0.148711
0.148751
0.148792
0.148832
0.148872
0.148911
0.14895
0.148989
0.149027
0.149064
0.149101
0.149138
0.149174
0.149209
0.149244
0.149279
0.149313
0.149347
0.14938
0.149413
0.149445
0.149477
0.149509
0.149541
0.149572
0.149602
0.149633
0.149663
0.149693
0.149722
0.149752
0.149781
0.14981
0.149838
0.149867
0.149895
0.149923
0.149951
0.149979
0.150006
0.150033
0.15006
0.150086
0.150112
0.150138
0.150164
0.15019
0.150215
0.15024
0.150264
0.150289
0.150313
0.150336
0.15036
0.150383
0.150406
0.150429
0.150451
0.150473
0.150495
0.150517
0.150538
0.150559
0.15058
0.1506
0.15062
0.15064
0.15066
0.150679
0.150698
0.150717
0.150736
0.150754
0.150773
0.15079
0.150808
0.150826
0.150843
0.15086
0.150876
0.150893
0.148154
0.148199
0.148243
0.148286
0.148328
0.14837
0.148412
0.148454
0.148495
0.148537
0.148578
0.14862
0.148661
0.148702
0.148742
0.148783
0.148823
0.148862
0.148901
0.148939
0.148977
0.149014
0.149051
0.149087
0.149123
0.149158
0.149193
0.149228
0.149262
0.149296
0.149329
0.149362
0.149394
0.149427
0.149459
0.149491
0.149522
0.149553
0.149584
0.149615
0.149645
0.149675
0.149705
0.149735
0.149764
0.149794
0.149823
0.149851
0.14988
0.149908
0.149936
0.149963
0.14999
0.150017
0.150044
0.15007
0.150096
0.150122
0.150147
0.150172
0.150197
0.150221
0.150245
0.150269
0.150293
0.150316
0.150339
0.150362
0.150384
0.150406
0.150428
0.15045
0.150471
0.150493
0.150513
0.150534
0.150554
0.150574
0.150594
0.150614
0.150633
0.150652
0.150671
0.15069
0.150708
0.150726
0.150744
0.150761
0.150779
0.150796
0.150813
0.15083
0.150846
0.150862
0.150878
0.150894
0.15091
0.148166
0.148207
0.148251
0.148292
0.148334
0.148375
0.148417
0.148458
0.148501
0.148542
0.148584
0.148626
0.148667
0.148708
0.148748
0.148788
0.148826
0.148865
0.148903
0.14894
0.148976
0.149012
0.149048
0.149083
0.149118
0.149153
0.149187
0.14922
0.149254
0.149287
0.14932
0.149353
0.149385
0.149417
0.14945
0.149481
0.149513
0.149545
0.149576
0.149607
0.149638
0.149669
0.149699
0.14973
0.14976
0.149789
0.149819
0.149848
0.149877
0.149906
0.149934
0.149961
0.149989
0.150016
0.150043
0.150069
0.150095
0.150121
0.150146
0.150171
0.150196
0.15022
0.150244
0.150268
0.150291
0.150314
0.150337
0.15036
0.150382
0.150404
0.150426
0.150447
0.150469
0.15049
0.15051
0.150531
0.150551
0.150571
0.150591
0.15061
0.15063
0.150649
0.150668
0.150686
0.150705
0.150723
0.150741
0.150758
0.150776
0.150793
0.15081
0.150827
0.150844
0.15086
0.150877
0.150893
0.150909
0.150925
0.150941
0.150956
0.148184
0.148227
0.148268
0.14831
0.148352
0.148394
0.148436
0.148479
0.14852
0.148562
0.148604
0.148645
0.148685
0.148725
0.148764
0.148802
0.14884
0.148877
0.148914
0.14895
0.148986
0.149021
0.149056
0.14909
0.149124
0.149158
0.149192
0.149225
0.149258
0.149291
0.149324
0.149356
0.149389
0.149421
0.149453
0.149485
0.149517
0.149549
0.14958
0.149612
0.149643
0.149674
0.149705
0.149735
0.149765
0.149794
0.149824
0.149853
0.149881
0.149909
0.149937
0.149964
0.149991
0.150018
0.150044
0.15007
0.150095
0.15012
0.150145
0.15017
0.150194
0.150218
0.150241
0.150264
0.150287
0.15031
0.150332
0.150354
0.150376
0.150398
0.150419
0.15044
0.150461
0.150481
0.150501
0.150521
0.150541
0.150561
0.15058
0.150599
0.150618
0.150636
0.150655
0.150673
0.150691
0.150709
0.150726
0.150743
0.15076
0.150777
0.150794
0.15081
0.150826
0.150842
0.150858
0.150874
0.15089
0.150905
0.150921
0.150936
0.150951
0.150966
0.150981
0.148186
0.148227
0.14827
0.148312
0.148355
0.148397
0.14844
0.148482
0.148524
0.148566
0.148606
0.148646
0.148685
0.148724
0.148762
0.148799
0.148836
0.148872
0.148908
0.148944
0.148979
0.149013
0.149048
0.149081
0.149115
0.149149
0.149182
0.149215
0.149249
0.149281
0.149314
0.149347
0.14938
0.149412
0.149445
0.149478
0.14951
0.149542
0.149574
0.149606
0.149638
0.149669
0.1497
0.14973
0.14976
0.14979
0.149819
0.149848
0.149877
0.149905
0.149933
0.14996
0.149987
0.150013
0.150039
0.150065
0.150091
0.150116
0.15014
0.150165
0.150189
0.150213
0.150236
0.150259
0.150282
0.150305
0.150327
0.150349
0.150371
0.150392
0.150414
0.150435
0.150455
0.150476
0.150496
0.150517
0.150537
0.150556
0.150576
0.150595
0.150614
0.150633
0.150651
0.15067
0.150688
0.150706
0.150724
0.150741
0.150758
0.150775
0.150792
0.150809
0.150825
0.150842
0.150858
0.150874
0.15089
0.150906
0.150922
0.150937
0.150953
0.150968
0.150983
0.150998
0.151013
0.151028
0.148194
0.148239
0.148281
0.148325
0.148368
0.14841
0.148453
0.148494
0.148535
0.148576
0.148615
0.148654
0.148692
0.14873
0.148767
0.148804
0.14884
0.148875
0.14891
0.148945
0.14898
0.149014
0.149048
0.149082
0.149116
0.14915
0.149183
0.149217
0.14925
0.149283
0.149316
0.14935
0.149383
0.149416
0.149448
0.149481
0.149514
0.149546
0.149578
0.14961
0.149641
0.149672
0.149703
0.149733
0.149763
0.149792
0.149821
0.149849
0.149877
0.149905
0.149932
0.149958
0.149985