/*--------------------------------*- C++ -*----------------------------------*\
  =========                 |
  \\      /  F ield         | OpenFOAM: The Open Source CFD Toolbox
   \\    /   O peration     | Website:  https://openfoam.org
    \\  /    A nd           | Version:  7
     \\/     M anipulation  |
\*---------------------------------------------------------------------------*/
FoamFile
{
    version     2.0;
    format      ascii;
    class       volScalarField;
    location    "0.9975";
    object      p;
}
// * * * * * * * * * * * * * * * * * * * * * * * * * * * * * * * * * * * * * //

dimensions      [0 2 -2 0 0 0 0];

internalField   nonuniform List<scalar> 
76363
(
2579.33
2578.11
2578.85
2579.69
2577.42
2578.16
2578.99
2579.84
2580.71
2574.94
2575.68
2576.52
2577.37
2578.24
2579.15
2572.56
2573.29
2574.12
2574.97
2575.83
2576.74
2577.68
2578.66
2568.99
2569.72
2570.55
2571.4
2572.26
2573.16
2574.1
2575.08
2576.1
2565.35
2566.07
2566.89
2567.73
2568.58
2569.47
2570.41
2571.38
2572.4
2573.45
2574.55
2560.87
2561.58
2562.4
2563.24
2564.09
2564.97
2565.9
2566.87
2567.88
2568.93
2570.03
2571.16
2556.26
2556.96
2557.78
2558.6
2559.44
2560.32
2561.24
2562.2
2563.2
2564.25
2565.33
2566.46
2567.63
2551.07
2551.76
2552.58
2553.39
2554.23
2555.1
2556.01
2556.97
2557.96
2559
2560.08
2561.21
2562.37
2563.58
2545.71
2546.4
2547.21
2548.02
2548.84
2549.7
2550.61
2551.56
2552.54
2553.57
2554.65
2555.76
2556.92
2558.12
2559.37
2539.97
2540.65
2541.45
2542.25
2543.07
2543.92
2544.82
2545.76
2546.74
2547.76
2548.83
2549.93
2551.09
2552.28
2553.53
2554.82
2534.12
2534.79
2535.58
2536.37
2537.18
2538.03
2538.92
2539.85
2540.82
2541.83
2542.88
2543.98
2545.12
2546.31
2547.55
2548.83
2550.15
2528.01
2528.68
2529.46
2530.24
2531.04
2531.88
2532.76
2533.68
2534.64
2535.64
2536.69
2537.78
2538.91
2540.09
2541.32
2542.59
2543.9
2545.26
2521.83
2522.48
2523.26
2524.03
2524.82
2525.65
2526.52
2527.43
2528.38
2529.37
2530.41
2531.49
2532.61
2533.78
2534.99
2536.25
2537.56
2538.9
2540.27
2515.51
2516.15
2516.92
2517.69
2518.47
2519.28
2520.14
2521.04
2521.98
2522.97
2523.99
2525.06
2526.17
2527.33
2528.53
2529.78
2531.07
2532.4
2533.76
2509.18
2509.81
2510.57
2511.32
2512.09
2512.89
2513.74
2514.63
2515.56
2516.53
2517.54
2518.6
2519.7
2520.84
2522.03
2523.27
2524.55
2525.86
2527.2
2528.58
2502.81
2503.43
2504.18
2504.92
2505.68
2506.47
2507.3
2508.18
2509.1
2510.05
2511.05
2512.1
2513.18
2514.31
2515.49
2516.71
2517.98
2519.27
2520.6
2521.96
2523.35
2496.48
2497.09
2497.83
2498.56
2499.3
2500.08
2500.9
2501.76
2502.67
2503.61
2504.6
2505.62
2506.69
2507.81
2508.97
2510.18
2511.42
2512.7
2514.01
2515.35
2516.72
2490.21
2490.8
2491.53
2492.25
2492.97
2493.74
2494.55
2495.39
2496.28
2497.21
2498.18
2499.19
2500.24
2501.34
2502.48
2503.67
2504.9
2506.16
2507.45
2508.77
2510.12
2511.5
2484.04
2484.62
2485.33
2486.04
2486.75
2487.5
2488.29
2489.12
2489.99
2490.9
2491.85
2492.84
2493.88
2494.95
2496.08
2497.24
2498.45
2499.69
2500.95
2502.25
2503.57
2504.93
2478
2478.56
2479.26
2479.95
2480.64
2481.37
2482.14
2482.96
2483.81
2484.7
2485.62
2486.59
2487.61
2488.66
2489.76
2490.9
2492.09
2493.3
2494.54
2495.8
2497.1
2498.43
2499.8
2472.12
2472.67
2473.35
2474.02
2474.69
2475.4
2476.15
2476.94
2477.77
2478.63
2479.54
2480.48
2481.47
2482.5
2483.57
2484.68
2485.84
2487.02
2488.23
2489.46
2490.73
2492.02
2493.36
2466.44
2466.96
2467.62
2468.27
2468.92
2469.6
2470.33
2471.09
2471.89
2472.73
2473.61
2474.52
2475.48
2476.48
2477.52
2478.6
2479.72
2480.87
2482.04
2483.24
2484.46
2485.72
2487.02
2488.35
2460.96
2461.47
2462.1
2462.72
2463.35
2464.01
2464.7
2465.44
2466.21
2467.01
2467.86
2468.74
2469.66
2470.62
2471.63
2472.67
2473.75
2474.86
2475.99
2477.15
2478.33
2479.55
2480.8
2482.09
2455.72
2456.2
2456.81
2457.4
2457.99
2458.62
2459.29
2459.99
2460.72
2461.49
2462.3
2463.15
2464.03
2464.95
2465.91
2466.91
2467.95
2469.01
2470.09
2471.2
2472.34
2473.51
2474.71
2475.95
2450.73
2451.18
2451.76
2452.31
2452.88
2453.47
2454.1
2454.76
2455.46
2456.19
2456.96
2457.76
2458.59
2459.47
2460.38
2461.33
2462.32
2463.33
2464.36
2465.42
2466.5
2467.62
2468.76
2469.94
2471.16
2446.01
2446.43
2446.97
2447.49
2448.02
2448.57
2449.16
2449.78
2450.43
2451.12
2451.83
2452.59
2453.37
2454.19
2455.05
2455.95
2456.88
2457.83
2458.8
2459.8
2460.82
2461.87
2462.95
2464.07
2465.22
2441.58
2441.96
2442.47
2442.95
2443.43
2443.94
2444.48
2445.06
2445.66
2446.29
2446.96
2447.65
2448.38
2449.14
2449.94
2450.77
2451.64
2452.52
2453.43
2454.35
2455.3
2456.28
2457.29
2458.34
2459.41
2437.47
2437.81
2438.27
2438.7
2439.14
2439.6
2440.09
2440.61
2441.15
2441.73
2442.33
2442.96
2443.62
2444.31
2445.04
2445.8
2446.59
2447.41
2448.23
2449.08
2449.95
2450.85
2451.78
2452.74
2453.74
2454.77
2433.7
2433.99
2434.4
2434.78
2435.16
2435.57
2436
2436.45
2436.93
2437.44
2437.97
2438.53
2439.11
2439.73
2440.38
2441.05
2441.76
2442.49
2443.23
2443.99
2444.77
2445.58
2446.42
2447.29
2448.19
2449.13
2430.29
2430.52
2430.87
2431.19
2431.51
2431.85
2432.21
2432.6
2433.01
2433.43
2433.89
2434.36
2434.86
2435.39
2435.94
2436.53
2437.14
2437.77
2438.41
2439.07
2439.76
2440.46
2441.2
2441.96
2442.76
2443.6
2427.26
2427.43
2427.71
2427.97
2428.22
2428.48
2428.77
2429.07
2429.39
2429.73
2430.09
2430.47
2430.87
2431.3
2431.75
2432.23
2432.73
2433.25
2433.78
2434.33
2434.9
2435.49
2436.11
2436.76
2437.45
2438.17
2424.62
2424.72
2424.93
2425.11
2425.28
2425.46
2425.66
2425.87
2426.09
2426.33
2426.59
2426.86
2427.15
2427.46
2427.79
2428.14
2428.52
2428.92
2429.33
2429.75
2430.19
2430.66
2431.15
2431.68
2432.24
2432.84
2433.48
2422.41
2422.43
2422.55
2422.65
2422.72
2422.81
2422.91
2423.02
2423.13
2423.26
2423.39
2423.54
2423.7
2423.88
2424.07
2424.28
2424.52
2424.77
2425.04
2425.32
2425.62
2425.94
2426.3
2426.69
2427.1
2427.57
2428.08
2420.61
2420.55
2420.57
2420.56
2420.54
2420.52
2420.51
2420.5
2420.5
2420.5
2420.51
2420.52
2420.54
2420.58
2420.62
2420.68
2420.75
2420.84
2420.94
2421.05
2421.19
2421.35
2421.56
2421.8
2422.04
2422.36
2422.72
2419.27
2419.1
2419.02
2418.91
2418.78
2418.65
2418.51
2418.37
2418.22
2418.07
2417.91
2417.75
2417.59
2417.46
2417.32
2417.19
2417.08
2416.98
2416.9
2416.84
2416.78
2416.77
2416.83
2416.95
2417.03
2417.19
2417.4
2418.33
2418.04
2417.82
2417.57
2417.32
2417.08
2416.84
2416.6
2416.35
2416.1
2415.84
2415.57
2415.26
2414.93
2414.6
2414.27
2413.95
2413.62
2413.28
2412.94
2412.62
2412.33
2411.97
2411.82
2411.81
2411.88
2412.01
2412.08
2418.1
2417.68
2417.35
2417
2416.59
2416.11
2415.63
2415.18
2414.76
2414.34
2413.9
2413.44
2412.98
2412.48
2411.99
2411.49
2410.98
2410.49
2409.96
2409.43
2408.93
2408.44
2407.96
2407.44
2406.98
2406.45
2406.33
2406.4
2418.06
2417.57
2417.15
2416.67
2416.12
2415.52
2414.91
2414.29
2413.67
2413.02
2412.34
2411.65
2410.95
2410.24
2409.51
2408.78
2408.04
2407.31
2406.56
2405.83
2405.11
2404.43
2403.85
2403.11
2402.37
2401.69
2401.04
2400.53
2418.45
2417.87
2417.3
2416.66
2415.95
2415.21
2414.44
2413.64
2412.81
2411.95
2411.06
2410.14
2409.2
2408.24
2407.27
2406.29
2405.31
2404.32
2403.31
2402.31
2401.32
2400.35
2399.4
2398.47
2397.62
2396.91
2396.01
2395.17
2419.46
2418.72
2417.98
2417.16
2416.29
2415.37
2414.41
2413.4
2412.35
2411.26
2410.12
2408.95
2407.74
2406.51
2405.26
2403.99
2402.72
2401.45
2400.16
2398.87
2397.59
2396.32
2395.09
2393.91
2392.79
2391.75
2390.77
2389.94
2420.98
2420.06
2419.13
2418.13
2417.07
2415.94
2414.77
2413.53
2412.24
2410.9
2409.5
2408.06
2406.57
2405.04
2403.48
2401.9
2400.3
2398.71
2397.12
2395.52
2393.91
2392.33
2390.79
2389.31
2387.9
2386.59
2385.38
2384.33
2422.95
2421.86
2420.73
2419.54
2418.27
2416.93
2415.52
2414.04
2412.49
2410.87
2409.19
2407.44
2405.65
2403.8
2401.92
2400
2398.06
2396.11
2394.15
2392.19
2390.26
2388.36
2386.48
2384.68
2382.96
2381.35
2379.87
2378.54
2377.4
2425.43
2424.16
2422.82
2421.41
2419.92
2418.34
2416.68
2414.93
2413.09
2411.18
2409.18
2407.12
2404.98
2402.79
2400.55
2398.26
2395.95
2393.62
2391.27
2388.92
2386.6
2384.32
2382.11
2379.97
2377.91
2375.99
2374.21
2372.6
2371.18
2428.39
2426.92
2425.36
2423.73
2422.01
2420.18
2418.24
2416.2
2414.06
2411.82
2409.49
2407.07
2404.57
2402
2399.36
2396.68
2393.97
2391.23
2388.48
2385.72
2382.98
2380.28
2377.67
2375.17
2372.77
2370.51
2368.42
2366.52
2364.85
2431.85
2430.17
2428.38
2426.51
2424.54
2422.44
2420.21
2417.86
2415.39
2412.81
2410.11
2407.31
2404.41
2401.42
2398.37
2395.26
2392.1
2388.93
2385.73
2382.54
2379.37
2376.24
2373.19
2370.27
2367.51
2364.91
2362.49
2360.3
2358.37
2435.81
2433.91
2431.87
2429.76
2427.52
2425.13
2422.59
2419.91
2417.09
2414.13
2411.04
2407.82
2404.49
2401.06
2397.55
2393.97
2390.34
2386.69
2383.01
2379.34
2375.71
2372.13
2368.64
2365.28
2362.09
2359.14
2356.4
2353.91
2351.72
2440.26
2438.15
2435.85
2433.47
2430.95
2428.26
2425.39
2422.35
2419.15
2415.79
2412.28
2408.62
2404.83
2400.92
2396.91
2392.82
2388.68
2384.51
2380.32
2376.13
2371.99
2367.93
2363.98
2360.18
2356.55
2353.19
2350.12
2347.34
2344.89
2445.22
2442.87
2440.3
2437.65
2434.84
2431.82
2428.6
2425.19
2421.58
2417.8
2413.83
2409.69
2405.41
2400.98
2396.44
2391.81
2387.11
2382.38
2377.63
2372.9
2368.22
2363.63
2359.18
2354.92
2350.87
2347.08
2343.63
2340.56
2337.86
2450.68
2448.08
2445.23
2442.29
2439.18
2435.82
2432.23
2428.42
2424.38
2420.14
2415.69
2411.05
2406.22
2401.24
2396.13
2390.92
2385.63
2380.29
2374.95
2369.62
2364.37
2359.22
2354.25
2349.49
2344.99
2340.8
2336.96
2333.58
2330.63
2456.63
2453.78
2450.64
2447.4
2443.96
2440.25
2436.27
2432.04
2427.55
2422.82
2417.86
2412.67
2407.28
2401.71
2395.98
2390.14
2384.22
2378.24
2372.26
2366.3
2360.43
2354.7
2349.16
2343.88
2338.91
2334.3
2330.1
2326.38
2323.15
2463.05
2459.95
2456.52
2452.97
2449.2
2445.11
2440.72
2436.05
2431.08
2425.84
2420.33
2414.57
2408.57
2402.37
2395.99
2389.48
2382.88
2376.22
2369.55
2362.92
2356.39
2350.04
2343.91
2338.08
2332.61
2327.57
2323
2318.95
2315.43
2312.62
2469.95
2466.59
2462.85
2458.99
2454.87
2450.4
2445.58
2440.44
2434.98
2429.2
2423.11
2416.74
2410.1
2403.22
2396.15
2388.93
2381.6
2374.21
2366.81
2359.47
2352.26
2345.24
2338.49
2332.09
2326.1
2320.6
2315.66
2311.29
2307.56
2304.66
2477.31
2473.68
2469.63
2465.45
2460.97
2456.1
2450.84
2445.22
2439.23
2432.88
2426.19
2419.17
2411.85
2404.26
2396.45
2388.48
2380.38
2372.22
2364.05
2355.95
2348
2340.29
2332.88
2325.88
2319.36
2313.39
2308.04
2303.39
2299.51
2296.54
2485.1
2481.21
2476.85
2472.33
2467.49
2462.21
2456.5
2450.37
2443.83
2436.89
2429.57
2421.87
2413.83
2405.49
2396.9
2388.13
2379.21
2370.23
2361.25
2352.35
2343.63
2335.18
2327.09
2319.46
2312.39
2305.95
2300.19
2295.27
2291.24
2288.07
2493.33
2489.17
2484.49
2479.64
2474.42
2468.72
2462.53
2455.89
2448.78
2441.23
2433.24
2424.83
2416.04
2406.91
2397.5
2387.87
2378.1
2368.25
2358.41
2348.67
2339.14
2329.91
2321.11
2312.83
2305.18
2298.22
2292.11
2286.88
2282.74
2279.32
2501.92
2497.5
2492.52
2487.33
2481.74
2475.61
2468.95
2461.77
2454.08
2445.89
2437.2
2428.05
2418.48
2408.51
2398.23
2387.71
2377.03
2366.27
2355.52
2344.9
2334.51
2324.48
2314.93
2305.99
2297.7
2290.24
2283.78
2278.23
2273.97
2270.14
2511.01
2506.28
2500.96
2495.43
2489.46
2482.89
2475.73
2468
2459.71
2450.85
2441.45
2431.53
2421.12
2410.28
2399.08
2387.63
2376
2364.28
2352.59
2341.04
2329.76
2318.88
2308.55
2298.86
2289.98
2282.07
2275.22
2269.34
2264.93
2260.24
2520.14
2515.18
2509.55
2503.7
2497.35
2490.36
2482.71
2474.44
2465.54
2456.01
2445.88
2435.16
2423.91
2412.17
2400.03
2387.61
2375
2362.29
2349.61
2337.1
2324.9
2313.16
2302.03
2291.58
2282.13
2273.72
2266.47
2260.37
2255.85
2251.48
1648.55
1672.17
1688.83
1702.34
1716.64
1731.85
1746.86
1761.55
1775.71
1789.57
1802.94
1815.97
1828.68
1841.12
1853.31
1865.37
1877.15
1888.96
1900.37
1911.72
1922.68
1933.5
1944.01
1954.37
1964.46
1974.37
1984
1993.45
2002.64
2011.63
2020.38
2028.92
2037.23
2045.33
2053.21
2060.88
2068.34
2075.58
2082.64
2089.48
2096.14
2102.57
2108.84
2114.89
2120.79
2126.47
2132
2137.32
2142.5
2147.48
2152.32
2156.97
2161.49
2165.82
2170.02
2174.05
89.0956
76.9745
67.77
61.6581
54.9949
47.0586
39.1622
31.6591
24.4534
17.2666
10.0368
2.91919
-3.97448
-10.6118
-17.0567
-23.3557
-29.4871
-35.5641
-41.4468
-47.2352
-52.8211
-58.2842
-63.5675
-68.7219
-73.7139
-78.5864
-83.2947
-87.8726
-92.3029
-96.6046
-100.762
-104.785
-108.661
-112.418
-116.035
-119.536
-122.899
-126.14
-129.261
-132.254
-135.133
-137.881
-140.519
-143.035
-145.447
-147.744
-149.937
-152.012
-153.986
-155.85
-157.639
-159.346
-161.031
-162.499
-163.772
-164.821
-165.703
1319.09
1332.72
1345.81
1356.3
1366.27
1376.49
1386.74
1396.67
1406.38
1415.86
1425.17
1434.27
1443.17
1451.83
1460.31
1468.56
1476.66
1484.55
1492.26
1499.78
1507.14
1514.31
1521.31
1528.13
1534.78
1541.27
1547.59
1553.75
1559.75
1565.6
1571.3
1576.84
1582.23
1587.49
1592.59
1597.56
1602.39
1607.08
1611.63
1616.06
1620.36
1624.53
1628.57
1632.49
1636.29
1639.98
1643.53
1647
1650.33
1653.6
1656.73
1659.92
1662.43
1663.35
1663.96
1664.54
1665.02
1665.22
1665.14
760.734
758.739
757.452
755.042
752.062
749.098
746.293
743.597
740.893
738.316
735.829
733.404
730.995
728.569
726.099
723.672
721.333
719.039
716.806
714.506
712.3
710.083
707.911
705.822
703.782
701.798
699.841
697.832
695.952
694.178
692.466
690.822
689.244
687.733
686.248
684.83
683.483
682.171
680.867
679.625
678.472
677.294
676.176
675.045
673.988
672.991
672.078
671.187
670.372
669.529
668.846
667.934
667.62
669.15
671.149
672.849
674.38
676.015
677.827
679.783
681.883
1346.56
1354.97
1362.18
1368.55
1374.54
1380.72
1386.98
1393.15
1399.35
1405.46
1411.36
1417.04
1422.55
1427.79
1432.8
1437.77
1442.74
1447.7
1452.44
1457.27
1462.06
1466.9
1471.77
1476.53
1481.09
1485.41
1489.44
1493.53
1497.73
1501.91
1505.93
1509.81
1513.64
1517.38
1521
1524.47
1527.85
1531.13
1534.35
1537.52
1540.64
1543.86
1546.92
1550.03
1552.73
1554.78
1556.59
1558.37
1560.11
1561.85
1563.54
1565.17
1566.77
1568.19
1569.43
1570.52
1571.48
1572.33
1573.03
1573.61
1574.03
1574.32
1151.84
1153.1
1156.07
1156.89
1156.64
1156.44
1156.6
1156.93
1157.17
1157.33
1157.45
1157.55
1157.64
1157.69
1157.77
1157.93
1158.18
1158.44
1158.73
1158.99
1159.3
1159.56
1159.84
1160.15
1160.44
1160.8
1161.15
1161.47
1161.74
1162.07
1162.51
1162.96
1163.32
1163.67
1164
1164.34
1164.7
1165.08
1165.4
1165.75
1166.12
1166.4
1166.75
1166.88
1167.37
1168.77
1170.41
1171.94
1173.43
1174.9
1176.43
1177.9
1179.36
1180.87
1182.44
1184.06
1185.76
1187.49
1189.29
1191.11
1192.96
1194.83
1196.74
1198.69
1465.77
1471.35
1477.07
1481.5
1485.68
1490.04
1494.59
1499.05
1503.34
1507.56
1511.74
1515.88
1519.96
1523.99
1527.95
1531.85
1535.7
1539.48
1543.21
1546.87
1550.5
1554.05
1557.61
1561.01
1564.46
1567.63
1570.48
1573.07
1575.64
1578.7
1581.8
1584.49
1587.1
1589.83
1592.42
1594.92
1597.56
1600.19
1602.61
1604.95
1607.39
1609.84
1612.08
1614.34
1616.73
1618.72
1620.29
1621.83
1623.76
1626.31
1628.45
1629.78
1631.04
1632.54
1633.86
1635.09
1636.39
1637.69
1638.84
1639.75
1640.48
1641.07
1641.54
1641.99
1642.51
1642.91
1427.08
1428.02
1432.35
1435.11
1436.54
1437.93
1439.53
1441.15
1442.63
1444.04
1445.44
1446.82
1448.16
1449.47
1450.73
1451.96
1453.14
1454.3
1455.42
1456.51
1457.56
1458.59
1459.57
1460.56
1461.44
1462.35
1463.76
1465.33
1466.73
1468.1
1469.48
1470.85
1472.19
1473.55
1474.9
1476.27
1477.66
1479.05
1480.42
1481.79
1483.17
1484.57
1485.95
1487.34
1488.75
1490.15
1491.57
1493.06
1494.59
1496.13
1497.63
1499.09
1500.56
1502.06
1503.57
1505.1
1506.65
1508.2
1509.75
1511.29
1512.82
1514.38
1515.94
1517.53
1519.16
1520.78
1522.41
1524.05
1608.04
1612.72
1618.61
1622.65
1626.03
1629.54
1633.24
1636.93
1640.54
1644.1
1647.64
1651.17
1654.69
1658.19
1661.66
1665.1
1668.52
1671.91
1675.27
1678.6
1681.91
1685.2
1688.45
1691.69
1694.89
1698.09
1701.23
1704.28
1707.26
1710.19
1713.06
1715.86
1718.61
1721.29
1723.93
1726.5
1729.02
1731.47
1733.87
1736.22
1738.51
1740.75
1742.93
1745.05
1747.13
1749.16
1751.13
1753.05
1754.92
1756.73
1758.5
1760.22
1761.89
1763.52
1765.09
1766.62
1768.1
1769.54
1770.94
1772.29
1773.6
1774.86
1776.08
1777.26
1778.39
1779.48
1780.52
1781.52
1782.48
1783.4
1624.68
1626.47
1631.01
1634.12
1636.21
1638.33
1640.66
1643.02
1645.29
1647.49
1649.67
1651.84
1654
1656.12
1658.23
1660.31
1662.37
1664.41
1666.42
1668.42
1670.4
1672.36
1674.31
1676.24
1678.15
1680.05
1681.94
1683.81
1685.67
1687.52
1689.35
1691.16
1692.97
1694.76
1696.54
1698.3
1700.05
1701.8
1703.52
1705.24
1706.95
1708.64
1710.32
1711.99
1713.65
1715.3
1716.94
1718.57
1720.18
1721.79
1723.39
1724.97
1726.55
1728.12
1729.67
1731.22
1732.75
1734.28
1735.8
1737.31
1738.8
1740.29
1741.77
1743.24
1744.7
1746.15
1747.59
1749.02
1750.44
1751.85
1753.25
1754.65
1754.66
1758.73
1764.17
1768.22
1771.63
1775.12
1778.75
1782.34
1785.83
1789.29
1792.71
1796.09
1799.43
1802.74
1806
1809.21
1812.39
1815.53
1818.62
1821.66
1824.67
1827.63
1830.55
1833.43
1836.26
1839.06
1841.81
1844.51
1847.17
1849.79
1852.37
1854.91
1857.4
1859.85
1862.26
1864.63
1866.95
1869.24
1871.48
1873.68
1875.85
1877.97
1880.06
1882.1
1884.11
1886.08
1888.01
1889.91
1891.77
1893.59
1895.37
1897.13
1898.85
1900.53
1902.18
1903.79
1905.37
1906.93
1908.45
1909.93
1911.39
1912.82
1914.21
1915.58
1916.92
1918.23
1919.51
1920.77
1922
1923.2
1924.39
1925.54
1926.66
1927.77
1783.8
1786.09
1790.9
1794.37
1796.89
1799.45
1802.19
1804.93
1807.59
1810.19
1812.77
1815.33
1817.87
1820.38
1822.86
1825.31
1827.74
1830.14
1832.51
1834.86
1837.18
1839.48
1841.76
1844
1846.23
1848.43
1850.61
1852.77
1854.9
1857.01
1859.1
1861.17
1863.22
1865.24
1867.24
1869.23
1871.2
1873.14
1875.06
1876.97
1878.86
1880.72
1882.57
1884.4
1886.21
1888.01
1889.78
1891.54
1893.28
1895
1896.71
1898.4
1900.08
1901.73
1903.37
1905
1906.61
1908.2
1909.78
1911.35
1912.9
1914.43
1915.95
1917.45
1918.94
1920.42
1921.89
1923.33
1924.77
1926.19
1927.6
1928.99
1930.37
1931.74
1933.09
1934.43
1878.76
1882.84
1887.86
1891.76
1895.17
1898.64
1902.19
1905.7
1909.13
1912.52
1915.88
1919.2
1922.48
1925.71
1928.91
1932.06
1935.17
1938.24
1941.27
1944.25
1947.2
1950.11
1952.97
1955.79
1958.57
1961.32
1964.02
1966.68
1969.3
1971.88
1974.43
1976.93
1979.4
1981.82
1984.21
1986.57
1988.88
1991.16
1993.4
1995.6
1997.77
1999.91
2002
2004.06
2006.09
2008.09
2010.05
2011.98
2013.88
2015.74
2017.57
2019.38
2021.15
2022.89
2024.6
2026.28
2027.94
2029.56
2031.16
2032.73
2034.28
2035.79
2037.28
2038.75
2040.19
2041.61
2043
2044.36
2045.71
2047.03
2048.32
2049.6
2050.85
2052.08
2053.29
2054.48
2055.65
2056.8
1912.21
1915.11
1919.7
1923.23
1926.07
1928.94
1931.92
1934.9
1937.8
1940.65
1943.47
1946.27
1949.04
1951.78
1954.48
1957.16
1959.8
1962.42
1965
1967.56
1970.08
1972.58
1975.05
1977.49
1979.9
1982.29
1984.65
1986.98
1989.28
1991.56
1993.81
1996.03
1998.23
2000.4
2002.55
2004.68
2006.78
2008.86
2010.91
2012.94
2014.94
2016.92
2018.88
2020.82
2022.73
2024.63
2026.5
2028.35
2030.18
2031.99
2033.77
2035.54
2037.29
2039.02
2040.73
2042.42
2044.09
2045.75
2047.38
2049
2050.6
2052.18
2053.74
2055.29
2056.82
2058.33
2059.82
2061.3
2062.76
2064.21
2065.64
2067.05
2068.45
2069.83
2071.2
2072.55
2073.89
2075.21
2076.52
2077.82
1983.49
1987.46
1992.23
1996.08
1999.49
2002.94
2006.46
2009.94
2013.34
2016.7
2020.03
2023.32
2026.57
2029.79
2032.95
2036.08
2039.17
2042.22
2045.23
2048.2
2051.13
2054.02
2056.87
2059.68
2062.45
2065.18
2067.88
2070.53
2073.15
2075.73
2078.27
2080.78
2083.25
2085.68
2088.07
2090.43
2092.76
2095.05
2097.3
2099.52
2101.71
2103.86
2105.98
2108.07
2110.12
2112.15
2114.14
2116.1
2118.03
2119.93
2121.81
2123.65
2125.47
2127.26
2129.01
2130.75
2132.45
2134.13
2135.78
2137.41
2139.01
2140.59
2142.14
2143.67
2145.17
2146.65
2148.11
2149.54
2150.96
2152.35
2153.72
2155.07
2156.4
2157.71
2159
2160.27
2161.52
2162.76
2163.97
2165.17
2166.36
2167.52
2016.01
2019.24
2023.7
2027.3
2030.35
2033.42
2036.57
2039.7
2042.76
2045.78
2048.76
2051.72
2054.64
2057.53
2060.38
2063.2
2065.99
2068.75
2071.47
2074.16
2076.81
2079.44
2082.03
2084.6
2087.13
2089.63
2092.1
2094.54
2096.95
2099.34
2101.69
2104.02
2106.31
2108.58
2110.82
2113.03
2115.22
2117.38
2119.51
2121.61
2123.69
2125.75
2127.78
2129.78
2131.76
2133.72
2135.66
2137.57
2139.45
2141.31
2143.16
2144.98
2146.77
2148.55
2150.3
2152.04
2153.75
2155.44
2157.11
2158.76
2160.39
2162
2163.6
2165.17
2166.72
2168.26
2169.77
2171.27
2172.75
2174.21
2175.66
2177.09
2178.5
2179.9
2181.28
2182.64
2183.99
2185.33
2186.65
2187.96
2189.25
2190.53
2191.79
2193.04
2194.27
2070.55
2074.47
2079.05
2082.87
2086.3
2089.76
2093.26
2096.73
2100.13
2103.49
2106.81
2110.09
2113.33
2116.53
2119.69
2122.81
2125.9
2128.94
2131.94
2134.9
2137.83
2140.71
2143.56
2146.37
2149.13
2151.87
2154.56
2157.22
2159.83
2162.42
2164.97
2167.48
2169.95
2172.39
2174.79
2177.16
2179.5
2181.8
2184.07
2186.31
2188.51
2190.68
2192.82
2194.93
2197.01
2199.06
2201.08
2203.07
2205.03
2206.96
2208.86
2210.74
2212.58
2214.4
2216.2
2217.96
2219.7
2221.42
2223.11
2224.78
2226.42
2228.03
2229.62
2231.19
2232.74
2234.27
2235.77
2237.25
2238.71
2240.15
2241.56
2242.96
2244.34
2245.7
2247.04
2248.36
2249.66
2250.95
2252.21
2253.46
2254.69
2255.9
2257.09
2258.27
2259.43
2260.58
2261.72
2100.3
2103.73
2108.08
2111.72
2114.91
2118.11
2121.37
2124.6
2127.77
2130.89
2133.97
2137.03
2140.04
2143.02
2145.97
2148.88
2151.75
2154.59
2157.4
2160.17
2162.9
2165.61
2168.28
2170.91
2173.51
2176.08
2178.62
2181.13
2183.6
2186.05
2188.46
2190.84
2193.19
2195.52
2197.81
2200.08
2202.31
2204.52
2206.7
2208.85
2210.98
2213.08
2215.15
2217.2
2219.22
2221.22
2223.19
2225.14
2227.06
2228.95
2230.83
2232.68
2234.51
2236.31
2238.09
2239.85
2241.59
2243.3
2245
2246.67
2248.32
2249.95
2251.56
2253.15
2254.72
2256.28
2257.81
2259.32
2260.82
2262.29
2263.75
2265.2
2266.62
2268.03
2269.42
2270.79
2272.14
2273.49
2274.81
2276.12
2277.41
2278.69
2279.95
2281.2
2282.44
2283.66
2284.87
2286.07
2287.25
2288.41
2142.73
2146.6
2151.02
2154.8
2158.24
2161.7
2165.19
2168.64
2172.03
2175.37
2178.68
2181.95
2185.17
2188.36
2191.51
2194.62
2197.69
2200.73
2203.72
2206.67
2209.59
2212.47
2215.31
2218.11
2220.87
2223.6
2226.29
2228.94
2231.56
2234.15
2236.7
2239.21
2241.69
2244.13
2246.54
2248.92
2251.27
2253.58
2255.85
2258.1
2260.32
2262.51
2264.66
2266.79
2268.88
2270.95
2272.99
2275
2276.98
2278.93
2280.85
2282.75
2284.62
2286.46
2288.28
2290.07
2291.84
2293.58
2295.3
2296.99
2298.66
2300.3
2301.92
2303.52
2305.1
2306.66
2308.19
2309.71
2311.2
2312.67
2314.12
2315.55
2316.97
2318.36
2319.73
2321.08
2322.42
2323.73
2325.03
2326.31
2327.58
2328.82
2330.05
2331.27
2332.47
2333.65
2334.82
2335.97
2337.1
2338.22
2339.32
2340.41
2168.89
2172.44
2176.67
2180.31
2183.59
2186.86
2190.18
2193.46
2196.67
2199.85
2202.99
2206.09
2209.16
2212.19
2215.18
2218.14
2221.06
2223.95
2226.8
2229.61
2232.39
2235.14
2237.85
2240.53
2243.17
2245.78
2248.36
2250.9
2253.41
2255.89
2258.34
2260.76
2263.15
2265.51
2267.84
2270.14
2272.41
2274.65
2276.86
2279.04
2281.2
2283.33
2285.43
2287.51
2289.56
2291.58
2293.58
2295.55
2297.5
2299.42
2301.32
2303.19
2305.05
2306.87
2308.67
2310.45
2312.21
2313.95
2315.66
2317.36
2319.03
2320.68
2322.3
2323.91
2325.5
2327.07
2328.62
2330.15
2331.66
2333.15
2334.62
2336.08
2337.51
2338.93
2340.33
2341.71
2343.07
2344.42
2345.75
2347.07
2348.37
2349.65
2350.91
2352.16
2353.4
2354.61
2355.82
2357
2358.18
2359.34
2360.48
2361.62
2362.74
2363.85
2364.94
2202.18
2206
2210.26
2213.97
2217.4
2220.84
2224.3
2227.71
2231.07
2234.39
2237.67
2240.91
2244.11
2247.27
2250.4
2253.49
2256.54
2259.55
2262.52
2265.46
2268.36
2271.22
2274.05
2276.83
2279.58
2282.3
2284.98
2287.63
2290.23
2292.81
2295.36
2297.86
2300.34
2302.78
2305.19
2307.57
2309.91
2312.23
2314.51
2316.76
2318.98
2321.17
2323.33
2325.46
2327.57
2329.64
2331.69
2333.71
2335.7
2337.66
2339.59
2341.5
2343.39
2345.24
2347.07
2348.88
2350.66
2352.42
2354.15
2355.86
2357.55
2359.21
2360.85
2362.46
2364.06
2365.63
2367.19
2368.72
2370.23
2371.72
2373.19
2374.64
2376.06
2377.47
2378.86
2380.23
2381.59
2382.92
2384.24
2385.54
2386.82
2388.08
2389.33
2390.56
2391.78
2392.98
2394.17
2395.34
2396.49
2397.63
2398.76
2399.88
2400.98
2402.07
2403.13
2404.18
2405.2
2224.37
2227.97
2232.08
2235.69
2239
2242.31
2245.63
2248.92
2252.16
2255.35
2258.5
2261.62
2264.7
2267.74
2270.75
2273.72
2276.66
2279.56
2282.42
2285.24
2288.04
2290.79
2293.52
2296.2
2298.86
2301.48
2304.07
2306.62
2309.14
2311.63
2314.09
2316.52
2318.92
2321.28
2323.62
2325.93
2328.21
2330.46
2332.68
2334.87
2337.04
2339.17
2341.28
2343.36
2345.42
2347.45
2349.45
2351.43
2353.38
2355.31
2357.21
2359.09
2360.94
2362.77
2364.58
2366.36
2368.12
2369.86
2371.58
2373.27
2374.94
2376.59
2378.22
2379.82
2381.41
2382.98
2384.53
2386.05
2387.56
2389.05
2390.51
2391.96
2393.39
2394.8
2396.2
2397.57
2398.93
2400.27
2401.59
2402.9
2404.19
2405.46
2406.72
2407.97
2409.19
2410.41
2411.61
2412.8
2413.97
2415.12
2416.27
2417.4
2418.51
2419.6
2420.67
2421.72
2422.76
2423.77
2424.77
2425.75
2250.33
2254.1
2258.21
2261.86
2265.27
2268.68
2272.09
2275.47
2278.79
2282.07
2285.32
2288.52
2291.69
2294.83
2297.92
2300.98
2304
2306.99
2309.93
2312.84
2315.72
2318.55
2321.36
2324.12
2326.85
2329.55
2332.21
2334.84
2337.43
2339.99
2342.52
2345.02
2347.48
2349.91
2352.31
2354.67
2357.01
2359.31
2361.59
2363.83
2366.05
2368.23
2370.39
2372.51
2374.61
2376.68
2378.72
2380.73
2382.72
2384.68
2386.61
2388.51
2390.39
2392.25
2394.07
2395.88
2397.66
2399.41
2401.14
2402.85
2404.53
2406.19
2407.82
2409.44
2411.03
2412.6
2414.15
2415.68
2417.18
2418.66
2420.13
2421.57
2422.99
2424.4
2425.78
2427.14
2428.49
2429.82
2431.13
2432.42
2433.69
2434.95
2436.19
2437.42
2438.63
2439.83
2441.01
2442.17
2443.33
2444.47
2445.59
2446.7
2447.78
2448.84
2449.88
2450.9
2451.91
2452.89
2453.86
2454.82
2455.75
2456.67
2457.56
2268.71
2272.3
2276.28
2279.85
2283.16
2286.46
2289.77
2293.05
2296.27
2299.44
2302.58
2305.68
2308.75
2311.78
2314.77
2317.73
2320.65
2323.53
2326.38
2329.18
2331.96
2334.7
2337.4
2340.07
2342.71
2345.31
2347.88
2350.42
2352.92
2355.39
2357.83
2360.24
2362.62
2364.96
2367.28
2369.56
2371.82
2374.05
2376.24
2378.41
2380.55
2382.66
2384.75
2386.8
2388.83
2390.83
2392.81
2394.75
2396.68
2398.58
2400.45
2402.3
2404.13
2405.93
2407.71
2409.46
2411.2
2412.91
2414.6
2416.27
2417.92
2419.55
2421.15
2422.74
2424.31
2425.86
2427.38
2428.89
2430.38
2431.85
2433.31
2434.74
2436.16
2437.56
2438.95
2440.31
2441.67
2443
2444.32
2445.63
2446.92
2448.2
2449.46
2450.71
2451.94
2453.17
2454.38
2455.58
2456.77
2457.94
2459.09
2460.22
2461.33
2462.43
2463.51
2464.57
2465.61
2466.64
2467.64
2468.63
2469.6
2470.55
2471.48
2472.4
2473.3
2474.18
2288.9
2292.59
2296.56
2300.14
2303.53
2306.89
2310.26
2313.59
2316.87
2320.11
2323.31
2326.48
2329.61
2332.7
2335.76
2338.78
2341.76
2344.71
2347.62
2350.49
2353.33
2356.13
2358.9
2361.63
2364.33
2366.99
2369.62
2372.22
2374.78
2377.31
2379.81
2382.27
2384.7
2387.1
2389.47
2391.8
2394.11
2396.38
2398.62
2400.84
2403.02
2405.18
2407.3
2409.39
2411.46
2413.5
2415.51
2417.49
2419.44
2421.37
2423.27
2425.14
2426.99
2428.81
2430.61
2432.37
2434.12
2435.84
2437.53
2439.21
2440.85
2442.47
2444.07
2445.65
2447.2
2448.74
2450.25
2451.73
2453.2
2454.65
2456.07
2457.48
2458.87
2460.23
2461.58
2462.91
2464.23
2465.52
2466.8
2468.06
2469.31
2470.54
2471.75
2472.95
2474.14
2475.31
2476.47
2477.62
2478.74
2479.85
2480.93
2482
2483.05
2484.08
2485.09
2486.08
2487.06
2488.01
2488.95
2489.86
2490.76
2491.65
2492.51
2493.35
2494.18
2494.99
2495.78
2496.56
2497.32
2303.81
2307.37
2311.2
2314.69
2317.98
2321.24
2324.51
2327.74
2330.91
2334.05
2337.14
2340.2
2343.23
2346.21
2349.16
2352.07
2354.95
2357.79
2360.59
2363.35
2366.09
2368.78
2371.45
2374.08
2376.67
2379.24
2381.77
2384.28
2386.75
2389.19
2391.6
2393.98
2396.33
2398.66
2400.95
2403.22
2405.46
2407.67
2409.86
2412.02
2414.15
2416.26
2418.34
2420.4
2422.43
2424.44
2426.43
2428.39
2430.32
2432.24
2434.13
2435.99
2437.84
2439.66
2441.46
2443.23
2444.98
2446.72
2448.43
2450.11
2451.78
2453.42
2455.05
2456.65
2458.23
2459.8
2461.34
2462.87
2464.37
2465.86
2467.33
2468.78
2470.21
2471.63
2473.03
2474.41
2475.78
2477.13
2478.47
2479.79
2481.09
2482.38
2483.66
2484.92
2486.17
2487.41
2488.63
2489.83
2491.02
2492.18
2493.32
2494.44
2495.55
2496.63
2497.7
2498.74
2499.77
2500.77
2501.76
2502.73
2503.68
2504.61
2505.52
2506.41
2507.29
2508.15
2508.99
2509.82
2510.63
2511.42
2512.19
2512.95
2319.49
2323.11
2326.92
2330.42
2333.74
2337.05
2340.35
2343.62
2346.83
2350.01
2353.15
2356.26
2359.33
2362.36
2365.36
2368.32
2371.24
2374.13
2376.98
2379.79
2382.57
2385.31
2388.01
2390.67
2393.3
2395.9
2398.45
2400.98
2403.46
2405.91
2408.33
2410.71
2413.06
2415.37
2417.65
2419.89
2422.11
2424.29
2426.44
2428.56
2430.65
2432.7
2434.73
2436.73
2438.7
2440.64
2442.56
2444.45
2446.32
2448.15
2449.97
2451.76
2453.52
2455.27
2456.99
2458.68
2460.36
2462.01
2463.64
2465.25
2466.84
2468.41
2469.96
2471.49
2473
2474.49
2475.96
2477.42
2478.86
2480.28
2481.68
2483.07
2484.44
2485.8
2487.14
2488.46
2489.77
2491.07
2492.35
2493.62
2494.88
2496.13
2497.36
2498.58
2499.8
2501
2502.18
2503.34
2504.48
2505.61
2506.71
2507.8
2508.87
2509.92
2510.95
2511.96
2512.95
2513.93
2514.88
2515.82
2516.74
2517.64
2518.52
2519.38
2520.23
2521.06
2521.87
2522.66
2523.43
2524.19
2524.93
2525.65
2526.36
2527.04
2527.71
2331.39
2334.89
2338.57
2341.98
2345.22
2348.44
2351.66
2354.84
2357.97
2361.06
2364.13
2367.15
2370.15
2373.11
2376.04
2378.93
2381.79
2384.62
2387.42
2390.18
2392.92
2395.62
2398.29
2400.92
2403.53
2406.11
2408.65
2411.17
2413.65
2416.1
2418.52
2420.91
2423.27
2425.6
2427.89
2430.16
2432.4
2434.61
2436.78
2438.93
2441.05
2443.14
2445.21
2447.24
2449.25
2451.22
2453.18
2455.1
2456.99
2458.86
2460.7
2462.52
2464.31
2466.07
2467.81
2469.53
2471.22
2472.88
2474.52
2476.14
2477.74
2479.31
2480.86
2482.38
2483.89
2485.37
2486.84
2488.28
2489.7
2491.11
2492.49
2493.86
2495.2
2496.53
2497.84
2499.13
2500.4
2501.66
2502.9
2504.12
2505.34
2506.54
2507.73
2508.9
2510.06
2511.21
2512.34
2513.44
2514.53
2515.6
2516.66
2517.7
2518.72
2519.72
2520.7
2521.67
2522.62
2523.55
2524.46
2525.36
2526.24
2527.1
2527.94
2528.77
2529.58
2530.38
2531.15
2531.92
2532.67
2533.4
2534.11
2534.81
2535.49
2536.16
2536.81
2537.45
2538.07
2538.67
2343.33
2346.84
2350.48
2353.86
2357.1
2360.31
2363.51
2366.67
2369.78
2372.84
2375.87
2378.87
2381.82
2384.73