/*--------------------------------*- C++ -*----------------------------------*\
  =========                 |
  \\      /  F ield         | OpenFOAM: The Open Source CFD Toolbox
   \\    /   O peration     | Website:  https://openfoam.org
    \\  /    A nd           | Version:  7
     \\/     M anipulation  |
\*---------------------------------------------------------------------------*/
FoamFile
{
    version     2.0;
    format      ascii;
    class       surfaceScalarField;
    location    "0.9975";
    object      phi;
}
// * * * * * * * * * * * * * * * * * * * * * * * * * * * * * * * * * * * * * //

dimensions      [0 3 -1 0 0 0 0];

internalField   nonuniform List<scalar> 
152148
(
-0.0100658
-5.18178
4.93843
-0.00847866
-4.94002
4.9368
-0.00868139
-0.00888903
4.7091
-0.00698253
-4.71059
4.70756
-0.00714592
4.70599
-0.00731347
4.70437
-0.00748502
-0.00766055
4.49031
-0.00555606
-4.49173
4.48884
-0.00568259
4.48734
-0.00581204
4.4858
-0.00594435
4.48422
-0.00607964
-0.00621814
4.28187
-0.00420999
-4.28321
4.28049
-0.00430097
4.27907
-0.00439416
4.27761
-0.00448911
4.27612
-0.00458613
4.27459
-0.00468526
4.27301
-0.00478654
-0.00488991
4.08324
-0.00293018
-4.08452
4.08193
-0.00298782
4.08058
-0.00304657
4.0792
-0.0031061
4.07778
-0.00316673
4.07632
-0.0032284
4.07483
-0.00329126
4.07329
-0.0033552
-0.00342019
3.89382
-0.00172276
-3.89503
3.89258
-0.00174843
3.89131
-0.00177437
3.89
-0.00180031
3.88866
-0.00182629
3.88728
-0.00185253
3.88587
-0.00187873
3.88442
-0.00190516
3.88293
-0.00193147
3.8814
-0.00195788
-0.00198423
3.71325
-0.000578723
-3.71439
3.71207
-0.000574408
3.71087
-0.000569359
3.70963
-0.00056336
3.70836
-0.000556681
3.70706
-0.000549103
3.70572
-0.000540777
3.70435
-0.000531456
3.70294
-0.000521193
3.70149
-0.000509848
3.7
-0.0004975
-0.000483794
3.54105
0.000499837
-3.54213
3.53994
0.000532752
3.5388
0.000567206
3.53764
0.000603454
3.53644
0.000641247
3.53521
0.000680814
3.53395
0.000722128
3.53265
0.00076523
3.53132
0.000810353
3.52995
0.000857516
3.52855
0.000906839
3.5271
0.000958408
0.00101236
3.37679
0.00151758
-3.3778
3.37574
0.00157752
3.37467
0.00163987
3.37357
0.00170483
3.37244
0.00177217
3.37128
0.00184213
3.37008
0.00191473
3.36886
0.00198999
3.3676
0.0020683
3.36631
0.00214946
3.36498
0.00223388
3.36362
0.00232151
3.36222
0.00241265
0.00250733
3.2202
0.00247859
-3.22116
3.21922
0.00256417
3.2182
0.00265293
3.21716
0.00274508
3.21609
0.00284041
3.215
0.00293922
3.21387
0.00304135
3.21271
0.00314723
3.21152
0.00325684
3.2103
0.00337038
3.20905
0.00348811
3.20776
0.00361007
3.20644
0.00373648
3.20508
0.00386757
0.00400344
3.07081
0.00338616
-3.07172
3.06988
0.00349594
3.06892
0.0036097
3.06794
0.00372755
3.06693
0.00384952
3.0659
0.00397551
3.06483
0.00410586
3.06374
0.00424055
3.06261
0.00438009
3.06146
0.00452424
3.06028
0.00467358
3.05906
0.00482807
3.05781
0.00498806
3.05652
0.00515355
3.0552
0.00532512
0.00550264
2.9283
0.00424021
-2.92915
2.92742
0.00437304
2.92652
0.00451057
2.92559
0.00465291
2.92464
0.00480004
2.92366
0.004952
2.92266
0.00510904
2.92163
0.00527127
2.92057
0.00543907
2.91948
0.00561245
2.91836
0.00579185
2.91722
0.00597725
2.91603
0.00616917
2.91482
0.00636753
2.91357
0.00657295
2.91229
0.00678536
0.00700562
2.79235
0.00504545
-2.79316
2.79153
0.00520003
2.79068
0.00536003
2.7898
0.00552554
2.78891
0.00569654
2.78799
0.00587307
2.78704
0.00605542
2.78607
0.00624371
2.78507
0.00643837
2.78404
0.00663942
2.78299
0.00684733
2.7819
0.00706209
2.78079
0.00728429
2.77964
0.00751384
2.77846
0.00775143
2.77725
0.00799695
2.776
0.00825143
0.00851517
2.66264
0.00580384
-2.6634
2.66187
0.00597901
2.66107
0.0061603
2.66024
0.00634774
2.6594
0.00654132
2.65853
0.00674114
2.65764
0.00694741
2.65672
0.00716045
2.65578
0.0073805
2.65481
0.00760782
2.65382
0.00784268
2.65279
0.00808538
2.65174
0.00833618
2.65066
0.00859542
2.64955
0.00886339
2.6484
0.00914049
2.64723
0.00942737
2.64602
0.00972467
0.0100329
2.5389
0.00651825
-2.53961
2.53817
0.0067129
2.53741
0.0069143
2.53664
0.00712248
2.53584
0.00733745
2.53502
0.00755927
2.53418
0.00778823
2.53332
0.00802464
2.53243
0.00826877
2.53152
0.0085209
2.53058
0.00878135
2.52961
0.0090504
2.52862
0.00932841
2.5276
0.00961566
2.52655
0.00991255
2.52547
0.0102195
2.52436
0.0105371
2.52322
0.0108662
0.0112073
2.42082
0.0071901
-2.42149
2.42013
0.00740316
2.41942
0.00762357
2.41869
0.00785139
2.41794
0.00808656
2.41717
0.00832923
2.41638
0.00857963
2.41557
0.00883815
2.41473
0.00910505
2.41387
0.00938068
2.41299
0.00966532
2.41208
0.00995935
2.41114
0.0102631
2.41018
0.0105769
2.40919
0.0109011
2.40818
0.0112363
2.40713
0.0115831
2.40606
0.0119423
2.40495
0.0123146
0.0127003
2.30816
0.00782191
-2.30879
2.30751
0.0080523
2.30684
0.00829067
2.30616
0.008537
2.30545
0.00879124
2.30473
0.00905357
2.30398
0.00932418
2.30322
0.00960361
2.30243
0.00989195
2.30162
0.0101898
2.30079
0.0104972
2.29993
0.0108149
2.29905
0.0111428
2.29815
0.0114818
2.29722
0.0118318
2.29626
0.0121938
2.29528
0.012568
2.29426
0.0129558
2.29322
0.0133575
2.29215
0.0137737
0.014205
2.20066
0.00841564
-2.20126
2.20005
0.00866236
2.19943
0.00891762
2.19878
0.00918136
2.19812
0.00945356
2.19744
0.00973436
2.19674
0.0100241
2.19602
0.0103231
2.19528
0.0106317
2.19452
0.0109504
2.19374
0.0112794
2.19293
0.0116192
2.19211
0.0119701
2.19125
0.0123326
2.19038
0.0127071
2.18948
0.0130941
2.18855
0.0134945
2.1876
0.0139091
2.18662
0.0143387
2.18561
0.0147837
0.0152447
2.09812
0.00897343
-2.09868
2.09754
0.00923544
2.09696
0.00950655
2.09635
0.00978661
2.09573
0.0100757
2.09509
0.0103738
2.09443
0.0106814
2.09376
0.0109988
2.09306
0.0113265
2.09235
0.0116647
2.09161
0.012014
2.09086
0.0123745
2.09008
0.0127471
2.08928
0.0131316
2.08846
0.0135292
2.08761
0.0139397
2.08674
0.0143647
2.08585
0.0148046
2.08493
0.0152604
2.08398
0.0157326
2.083
0.0162217
0.0167286
2.0003
0.00949677
-2.00082
1.99976
0.00977309
1.99921
0.010059
1.99864
0.0103544
1.99806
0.0106591
1.99746
0.0109735
1.99684
0.0112978
1.99621
0.0116325
1.99556
0.0119779
1.99489
0.0123345
1.9942
0.0127027
1.99349
0.0130828
1.99276
0.0134754
1.99201
0.0138809
1.99124
0.0142998
1.99045
0.0147327
1.98963
0.0151806
1.98879
0.0156444
1.98793
0.0161249
1.98704
0.0166226
1.98612
0.0171383
0.0176725
1.90699
0.00998695
-1.90748
1.90648
0.0102766
1.90597
0.0105763
1.90543
0.0108859
1.90489
0.0112053
1.90433
0.0115348
1.90375
0.0118747
1.90316
0.0122255
1.90255
0.0125875
1.90192
0.0129613
1.90128
0.013347
1.90061
0.0137455
1.89993
0.0141568
1.89923
0.0145819
1.89851
0.0150208
1.89777
0.0154747
1.897
0.015944
1.89622
0.0164303
1.89541
0.0169339
1.89458
0.0174556
1.89372
0.0179962
1.89283
0.0185563
0.0191369
1.81795
0.0104447
-1.81841
1.81748
0.0107467
1.817
0.0110592
1.8165
0.011382
1.81599
0.0117151
1.81547
0.0120587
1.81493
0.0124131
1.81438
0.0127788
1.81381
0.0131562
1.81322
0.0135459
1.81262
0.0139482
1.812
0.0143636
1.81137
0.0147926
1.81071
0.0152357
1.81004
0.0156936
1.80935
0.0161668
1.80864
0.0166564
1.8079
0.0171635
1.80715
0.0176889
1.80637
0.0182332
1.80557
0.0187972
1.80474
0.0193817
0.0199875
1.73295
0.01087
-1.73338
1.73252
0.0111835
1.73207
0.011508
1.73161
0.011843
1.73113
0.0121888
1.73065
0.0125453
1.73015
0.0129132
1.72963
0.0132927
1.72911
0.0136846
1.72856
0.014089
1.728
0.0145066
1.72743
0.0149377
1.72684
0.0153832
1.72623
0.0158431
1.72561
0.0163186
1.72496
0.0168098
1.7243
0.0173184
1.72362
0.017845
1.72292
0.0183907
1.7222
0.0189562
1.72145
0.0195421
1.72068
0.0201494
1.71989
0.0207791
0.0214319
1.65177
0.0112632
-1.65216
1.65136
0.0115873
1.65095
0.0119226
1.65052
0.012269
1.65009
0.0126264
1.64964
0.0129949
1.64917
0.0133752
1.6487
0.0137675
1.64821
0.0141726
1.64771
0.0145906
1.64719
0.0150224
1.64666
0.0154681
1.64612
0.0159288
1.64556
0.0164043
1.64498
0.0168961
1.64439
0.017404
1.64377
0.0179302
1.64314
0.018475
1.64249
0.0190397
1.64183
0.0196249
1.64114
0.0202314
1.64043
0.0208602
1.63969
0.0215121
0.0221883
1.57421
0.011625
-1.57457
1.57383
0.0119587
1.57345
0.0123041
1.57306
0.0126607
1.57266
0.0130287
1.57225
0.0134082
1.57182
0.0137998
1.57138
0.0142037
1.57094
0.0146209
1.57048
0.0150514
1.57
0.0154961
1.56951
0.0159552
1.56901
0.0164297
1.5685
0.0169197
1.56797
0.0174264
1.56742
0.0179499
1.56686
0.0184922
1.56628
0.019054
1.56568
0.0196362
1.56507
0.0202398
1.56444
0.0208655
1.56378
0.0215143
1.56311
0.0221872
0.0228853
1.50011
0.0119563
-1.50044
1.49977
0.0122988
1.49942
0.0126531
1.49906
0.013019
1.49869
0.0133966
1.49832
0.0137859
1.49793
0.0141877
1.49753
0.0146022
1.49712
0.0150303
1.4967
0.0154721
1.49627
0.0159285
1.49582
0.0163998
1.49537
0.0168869
1.49489
0.01739
1.49441
0.0179104
1.49391
0.0184482
1.4934
0.0190053
1.49287
0.0195825
1.49233
0.0201811
1.49176
0.0208016
1.49118
0.0214451
1.49059
0.0221126
1.48997
0.0228051
1.48933
0.0235237
0.0242695
1.42933
0.0122581
-1.42963
1.42902
0.0126082
1.42871
0.0129706
1.42838
0.0133448
1.42805
0.0137308
1.4277
0.014129
1.42735
0.0145398
1.42699
0.0149638
1.42662
0.0154015
1.42624
0.0158535
1.42584
0.0163204
1.42544
0.0168026
1.42503
0.0173011
1.4246
0.017816
1.42416
0.0183488
1.42371
0.0188995
1.42325
0.0194702
1.42277
0.0200616
1.42227
0.020675
1.42176
0.0213112
1.42124
0.0219712
1.4207
0.022656
1.42013
0.0233668
1.41955
0.0241046
0.0248706
1.36174
0.012531
-1.36201
1.36146
0.0128879
1.36118
0.0132573
1.36088
0.0136386
1.36058
0.0140321
1.36027
0.0144379
1.35995
0.0148567
1.35963
0.0152889
1.3593
0.0157352
1.35895
0.0161961
1.3586
0.0166722
1.35824
0.0171641
1.35787
0.0176727
1.35749
0.0181983
1.35709
0.0187421
1.35669
0.0193045
1.35627
0.0198874
1.35584
0.0204917
1.3554
0.0211187
1.35494
0.0217693
1.35447
0.0224444
1.35398
0.0231453
1.35347
0.023873
1.35295
0.0246289
0.025414
1.2972
0.0127758
-1.29745
1.29695
0.0131385
1.29669
0.0135137
1.29643
0.0139012
1.29616
0.0143009
1.29589
0.0147132
1.29561
0.0151388
1.29532
0.0155781
1.29502
0.0160317
1.29472
0.0165002
1.2944
0.0169844
1.29408
0.0174847
1.29375
0.0180021
1.29342
0.018537
1.29307
0.0190907
1.29271
0.0196634
1.29234
0.0202573
1.29196
0.0208732
1.29156
0.0215125
1.29116
0.0221762
1.29073
0.0228654
1.2903
0.0235811
1.28985
0.0243246
1.28938
0.0250972
1.28889
0.0259003
0.026735
1.23558
0.0129929
-1.2358
1.23536
0.0133602
1.23514
0.0137403
1.23491
0.0141327
1.23467
0.0145375
1.23443
0.0149552
1.23418
0.0153863
1.23393
0.0158314
1.23367
0.0162911
1.2334
0.0167661
1.23313
0.017257
1.23285
0.0177645
1.23256
0.0182895
1.23227
0.0188324
1.23196
0.0193947
1.23165
0.0199765
1.23133
0.0205801
1.23099
0.0212063
1.23065
0.0218568
1.23029
0.0225325
1.22992
0.0232344
1.22954
0.0239638
1.22914
0.024722
1.22873
0.0255104
1.2283
0.0263304
0.0271833
1.17676
0.0131824
-1.17695
1.17657
0.0135531
1.17637
0.0139369
1.17617
0.0143331
1.17597
0.0147419
1.17576
0.0151637
1.17554
0.0155991
1.17533
0.0160488
1.1751
0.0165134
1.17488
0.0169934
1.17464
0.0174898
1.17441
0.0180031
1.17416
0.0185344
1.17391
0.0190842
1.17365
0.0196538
1.17338
0.0202435
1.17311
0.0208556
1.17282
0.021491
1.17253
0.0221515
1.17222
0.022838
1.1719
0.0235516
1.17157
0.0242938
1.17123
0.0250657
1.17087
0.025869
1.1705
0.026705
0.0275752
1.12061
0.0133443
-1.12077
1.12044
0.0137174
1.12028
0.0141037
1.12011
0.0145025
1.11993
0.014914
1.11976
0.0153386
1.11958
0.0157771
1.1194
0.01623
1.11922
0.0166981
1.11903
0.017182
1.11883
0.0176825
1.11864
0.0182004
1.11844
0.0187367
1.11823
0.019292
1.11801
0.0198678
1.11779
0.0204642
1.11756
0.0210838
1.11733
0.0217272
1.11708
0.0223966
1.11683
0.0230929
1.11656
0.0238174
1.11628
0.0245713
1.11599
0.0253561
1.11569
0.0261734
1.11537
0.0270248
0.0279117
1.067
0.0134782
-1.06713
1.06687
0.0138525
1.06673
0.0142401
1.06659
0.0146402
1.06645
0.0150531
1.06631
0.0154794
1.06617
0.0159196
1.06602
0.0163746
1.06588
0.0168448
1.06573
0.0173312
1.06558
0.0178346
1.06542
0.0183557
1.06526
0.0188957
1.0651
0.0194553
1.06493
0.0200362
1.06476
0.0206379
1.06458
0.0212643
1.06439
0.0219146
1.06419
0.0225917
1.06399
0.0232972
1.06378
0.0240312
1.06355
0.0247967
1.06331
0.0255931
1.06306
0.0264239
1.0628
0.0272904
1.06252
0.0281933
0.0291355
1.01583
0.0135845
-1.01594
1.01573
0.0139587
1.01562
0.0143465
1.01552
0.0147466
1.01541
0.0151597
1.0153
0.0155862
1.0152
0.0160268
1.01509
0.0164823
1.01498
0.0169534
1.01487
0.0174408
1.01476
0.0179456
1.01465
0.0184686
1.01453
0.0190109
1.01441
0.0195734
1.01429
0.0201583
1.01416
0.0207641
1.01403
0.021396
1.01389
0.0220531
1.01375
0.0227361
1.01359
0.0234521
1.01343
0.0241926
1.01326
0.0249714
1.01307
0.0257774
1.01288
0.0266203
1.01266
0.0275035
1.01244
0.0284207
0.0293813
0.966982
0.0136622
-0.96706
0.966906
0.0140351
0.96683
0.0144217
0.966756
0.0148208
0.966683
0.0152329
0.966611
0.0156585
0.966539
0.0160983
0.966468
0.016553
0.966398
0.0170235
0.966328
0.0175107
0.966258
0.0180155
0.966188
0.018539
0.966116
0.0190826
0.966044
0.019646
0.965968
0.0202343
0.965889
0.0208426
0.965808
0.021477
0.965718
0.0221435
0.965625
0.0228289
0.965522
0.0235553
0.965412
0.0243025
0.965292
0.0250909
0.96516
0.0259096
0.965021
0.0267598
0.964857
0.0276673
0.964683
0.0285943
0.0295743
0.920351
0.0137131
-0.920402
0.920303
0.0140833
0.920257
0.0144675
0.920214
0.014864
0.920173
0.0152737
0.920135
0.0156969
0.920099
0.0161343
0.920065
0.0165865
0.920034
0.0170546
0.920005
0.0175398
0.919976
0.0180442
0.91995
0.0185651
0.919915
0.0191181
0.919888
0.0196726
0.91985
0.0202719
0.91982
0.020873
0.919788
0.021509
0.919738
0.0221935
0.919688
0.0228786
0.919642
0.0236022
0.919587
0.0243568
0.919519
0.0251592
0.919431
0.0259973
0.919347
0.0268441
0.919239
0.0277747
0.919116
0.0287181
0.0297032
0.875841
0.0137388
-0.875867
0.87582
0.0141042
0.875801
0.0144865
0.875786
0.0148788
0.875768
0.0152919
0.875754
0.0157113
0.875744
0.016144
0.875739
0.0165911
0.875737
0.0170574
0.875734
0.0175427
0.875734
0.0180435
0.875737
0.0185626
0.875741
0.0191138
0.875746
0.019668
0.875755
0.0202626
0.875765
0.0208633
0.875773
0.0215005
0.875783
0.0221834
0.875789
0.0228733
0.875798
0.023593
0.875806
0.0243492
0.875815
0.0251501
0.875775
0.0260367
0.875728
0.0268917
0.875673
0.0278294
0.875596
0.0287955
0.875528
0.0297706
0.0308633
0.8333
0.0137414
-0.833302
0.8333
0.0141043
0.833303
0.0144832
0.83331
0.0148717
0.833322
0.0152799
0.83334
0.0156935
0.833364
0.0161195
0.833395
0.0165602
0.833432
0.017021
0.833473
0.0175017
0.833519
0.0179969
0.83357
0.0185122
0.833633
0.0190506
0.833689
0.0196114
0.833757
0.0201949
0.833816
0.0208043
0.833875
0.0214415
0.833948
0.0221102
0.834013
0.0228086
0.834067
0.0235388
0.834112
0.0243046
0.834154
0.0251076
0.834187
0.0260042
0.834199
0.0268797
0.834215
0.0278131
0.834165
0.0288459
0.834097
0.0298382
0.0309229
0.792689
0.0137169
-0.792665
0.792718
0.0140756
0.792754
0.0144469
0.792796
0.0148296
0.792852
0.0152244
0.792914
0.0156318
0.792979
0.0160537
0.793048
0.0164912
0.793124
0.0169453
0.793209
0.0174171
0.793297
0.0179081
0.79339
0.0184192
0.793489
0.0189517
0.793593
0.0195073
0.7937
0.0200882
0.793808
0.0206963
0.793917
0.0213328
0.794026
0.022001
0.794132
0.0227025
0.794231
0.0234393
0.794322
0.024214
0.794399
0.0250304
0.794503
0.0259003
0.794586
0.0267972
0.794658
0.0277407
0.794704
0.0287995
0.794712
0.029831
0.0309897
0.75389
0.0136652
-0.753838
0.75395
0.0140153
0.75402
0.0143772
0.754099
0.0147508
0.754187
0.0151368
0.754282
0.0155363
0.754385
0.0159505
0.754496
0.0163804
0.754614
0.0168273
0.754739
0.0172922
0.75487
0.0177767
0.755008
0.018282
0.75515
0.0188091
0.755297
0.0193601
0.755448
0.0199371
0.755603
0.0205417
0.75576
0.021176
0.755916
0.0218444
0.756071
0.0225482
0.75622
0.0232897
0.756363
0.0240712
0.756498
0.0248957
0.756631
0.025767
0.756744
0.0266843
0.756834
0.0276504
0.756957
0.0286773
0.757047
0.02974
0.030933
0.716823
0.0135851
-0.716743
0.716913
0.0139255
0.717013
0.014277
0.717124
0.0146404
0.717244
0.0150164
0.717374
0.0154061
0.717514
0.0158107
0.717663
0.0162312
0.717822
0.0166689
0.717989
0.0171252
0.718164
0.0176015
0.718347
0.0180994
0.718535
0.0186206
0.718728
0.0191667
0.718926
0.0197399
0.719126
0.020341
0.719329
0.0209733
0.719534
0.0216398
0.719737
0.0223452
0.719936
0.0230904
0.720129
0.0238784
0.720313
0.0247115
0.720488
0.0255926
0.720648
0.0265239
0.720791
0.0275073
0.72092
0.028548
0.721018
0.0296423
0.0308019
0.681415
0.013477
-0.681307
0.681533
0.0138068
0.681663
0.0141471
0.681805
0.0144991
0.681957
0.0148638
0.682121
0.0152422
0.682296
0.0156355
0.682482
0.016045
0.682679
0.016472
0.682886
0.0169181
0.683103
0.0173847
0.683329
0.0178736
0.683563
0.0183867
0.683804
0.018926
0.68405
0.019494
0.684298
0.0200924
0.684548
0.0207236
0.684798
0.0213894
0.685049
0.0220943
0.685298
0.022842
0.68554
0.0236364
0.685772
0.0244786
0.685993
0.0253717
0.686199
0.0263182
0.686386
0.0273206
0.686552
0.0283822
0.68669
0.0295042
0.0306923
0.647583
0.0133428
-0.647449
0.64773
0.0136606
0.647888
0.0139883
0.64806
0.0143276
0.648244
0.0146794
0.648441
0.015045
0.648652
0.0154255
0.648874
0.0158224
0.649109
0.0162371
0.649356
0.0166713
0.649614
0.0171267
0.649882
0.0176052
0.65016
0.018109
0.650446
0.01864
0.650739
0.019201
0.651037
0.0197944
0.651338
0.0204229
0.651637
0.0210895
0.651936
0.0217962
0.652229
0.0225481
0.652519
0.0233473
0.652799
0.0241978
0.653067
0.0251042
0.653317
0.0260675
0.653548
0.0270904
0.653754
0.0281758
0.653932
0.0293265
0.654079
0.030545
0.031834
0.615258
0.0131838
-0.615099
0.61543
0.0134884
0.615616
0.013802
0.615817
0.0141268
0.616032
0.0144641
0.616262
0.014815
0.616507
0.015181
0.616765
0.0155636
0.617038
0.0159644
0.617324
0.0163851
0.617623
0.0168277
0.617934
0.0172944
0.618256
0.0177873
0.618587
0.0183088
0.618926
0.0188619
0.619272
0.019449
0.619621
0.0200733
0.619973
0.020738
0.620321
0.0214478
0.620664
0.0222056
0.620999
0.0230124
0.621323
0.0238734
0.621635
0.0247916
0.62193
0.0257728
0.622203
0.0268176
0.62245
0.0279287
0.622668
0.0291088
0.622853
0.03036
0.0316826
0.584366
0.0130011
-0.584183
0.584563
0.0132908
0.584777
0.0135887
0.585006
0.0138973
0.585252
0.0142182
0.585514
0.0145528
0.585793
0.0149024
0.586088
0.0152689
0.586398
0.0156539
0.586724
0.0160594
0.587064
0.0164876
0.587417
0.0169408
0.587783
0.0174215
0.58816
0.0179323
0.588545
0.0184763
0.588938
0.0190565
0.589335
0.019676
0.589735
0.0203385
0.590133
0.0210491
0.590528
0.0218113
0.590912
0.0226284
0.591281
0.0235036
0.591636
0.0244374
0.591973
0.0254354
0.592287
0.0265039
0.592572
0.0276431
0.592826
0.0288553
0.593043
0.0301427
0.0315062
0.55485
0.0127958
-0.554645
0.555072
0.0130689
0.555312
0.0133493
0.555569
0.0136399
0.555845
0.0139425
0.556139
0.0142587
0.556451
0.0145902
0.556781
0.0149385
0.557129
0.0153058
0.557495
0.0156943
0.557876
0.0161063
0.558272
0.0165444
0.558682
0.0170114
0.559104
0.0175101
0.559537
0.0180441
0.559977
0.0186165
0.560422
0.0192308
0.560869
0.0198909
0.561316
0.0206024
0.561758
0.0213692
0.562191
0.0221951
0.562611
0.0230841
0.56301
0.0240385
0.563386
0.0250591
0.563739
0.026151
0.564061
0.0273209
0.564348
0.0285684
0.564595
0.0298954
0.0313026
0.526657
0.0125688
-0.52643
0.526903
0.0128236
0.527167
0.0130846
0.527452
0.0133552
0.527757
0.0136375
0.528082
0.0139334
0.528428
0.0142446
0.528793
0.0145728
0.529179
0.0149205
0.529583
0.01529
0.530005
0.015684
0.530445
0.0161053
0.530899
0.0165569
0.531367
0.0170423
0.531846
0.017565
0.532334
0.0181287
0.532827
0.0187373
0.533323
0.019395
0.533818
0.0201078
0.534307
0.02088
0.534787
0.0217155
0.535252
0.0226184
0.535698
0.0235926
0.536116
0.0246409
0.536504
0.0257631
0.536861
0.026964
0.537179
0.0282502
0.537454
0.0296206
0.0310756
0.499738
0.012321
-0.49949
0.500006
0.0125556
0.500295
0.0127954
0.500607
0.0130439
0.50094
0.0133039
0.501296
0.0135774
0.501675
0.0138661
0.502075
0.0141722
0.502497
0.0144982
0.502941
0.0148467
0.503404
0.0152207
0.503886
0.0156234
0.504385
0.0160581
0.504898
0.0165286
0.505424
0.0170389
0.50596
0.0175932
0.506502
0.0181955
0.507046
0.0188507
0.507589
0.0195653
0.508125
0.0203437
0.50865
0.0211902
0.50916
0.022109
0.509648
0.0231042
0.510109
0.0241795
0.510535
0.0253375
0.510922
0.0265771
0.511269
0.0279029
0.511569
0.0293206
0.0308266
0.474049
0.0120533
-0.473781
0.474338
0.0122661
0.474651
0.0124825
0.474988
0.0127069
0.47535
0.0129425
0.475736
0.0131913
0.476147
0.0134555
0.476582
0.0137372
0.477041
0.0140393
0.477523
0.0143647
0.478027
0.0147168
0.478551
0.015099
0.479094
0.0155151
0.479653
0.0159693
0.480226
0.0164661
0.480809
0.0170099
0.481399
0.0176055
0.481992
0.0182583
0.482582
0.0189751
0.483165
0.0197607
0.483735
0.0206198
0.484287
0.0215568
0.484816
0.0225756
0.485315
0.0236801
0.485779
0.0248736
0.486198
0.0261581
0.48657
0.0275312
0.486892
0.0289988
0.0305609
0.449548
0.0117668
-0.449261
0.449858
0.0119557
0.450194
0.0121468
0.450556
0.0123449
0.450945
0.0125538
0.45136
0.0127759
0.451802
0.0130132
0.452271
0.0132683
0.452766
0.0135443
0.453286
0.0138445
0.453831
0.0141726
0.454397
0.0145324
0.454984
0.0149282
0.455589
0.0153647
0.456208
0.0158466
0.456839
0.0163793
0.457477
0.0169677
0.458117
0.0176182
0.458754
0.0183379
0.459383
0.019132
0.459997
0.0200053
0.460591
0.0209626
0.461159
0.022008
0.461694
0.0231453
0.46219
0.0243775
0.462641
0.0257072
0.463037
0.0271352
0.463378
0.0286576
0.0302826
0.426197
0.0114625
-0.425893
0.426527
0.0116257
0.426884
0.0117893
0.42727
0.011959
0.427685
0.0121391
0.428129
0.0123321
0.428602
0.0125402
0.429104
0.0127664
0.429634
0.013014
0.430192
0.0132868
0.430776
0.0135887
0.431384
0.0139242
0.432014
0.014298
0.432664
0.0147151
0.433329
0.0151812
0.434007
0.0157018
0.434692
0.0162826
0.435379
0.0169312
0.436062
0.0176545
0.436736
0.0184583
0.437393
0.0193478
0.438028
0.0203279
0.438633
0.021403
0.439202
0.0225765
0.439728
0.0238515
0.440205
0.0252302
0.440626
0.0267142
0.440986
0.0282972
0.0299892
0.403959
0.0111418
-0.403638
0.404308
0.0112773
0.404685
0.0114114
0.405094
0.0115504
0.405534
0.0116994
0.406005
0.0118609
0.406508
0.0120376
0.407041
0.0122325
0.407606
0.0124494
0.4082
0.0126924
0.408823
0.0129661
0.409472
0.0132752
0.410145
0.0136251
0.410839
0.0140214
0.411549
0.0144703
0.412273
0.0149781
0.413004
0.0155512
0.413737
0.0161982
0.414466
0.0169262
0.415183
0.0177412
0.415882
0.0186489
0.416555
0.0196544
0.417196
0.0207623
0.417797
0.021976
0.41835
0.0232981
0.41885
0.0247302
0.419292
0.0262724
0.419668
0.0279211
0.419977
0.0296804
0.0315053
0.382798
0.0108059
-0.382462
0.383163
0.0109118
0.38356
0.0110143
0.38399
0.0111205
0.384454
0.011236
0.384951
0.0113638
0.385482
0.0115066
0.386046
0.0116679
0.386644
0.0118517
0.387274
0.0120627
0.387934
0.0123058
0.388623
0.0125865
0.389337
0.0129107
0.390074
0.0132847
0.390829
0.0137152
0.391598
0.0142094
0.392374
0.0147748
0.393152
0.0154207
0.393923
0.0161543
0.394683
0.0169821
0.395421
0.0179102
0.396132
0.018944
0.396806
0.0200881
0.397436
0.0213459
0.398014
0.0227196
0.398534
0.0242104
0.398992
0.0258145
0.399375
0.0275377
0.399686
0.0293703
0.0312517
0.362677
0.0104565
-0.362328
0.363058
0.0105308
0.363473
0.0105996
0.363922
0.0106708
0.364408
0.0107507
0.364929
0.0108425
0.365487
0.010949
0.36608
0.0110742
0.36671
0.0112225
0.367373
0.0113991
0.36807
0.0116094
0.368796
0.0118596
0.369551
0.0121562
0.370329
0.0125062
0.371128
0.0129171
0.37194
0.013397
0.37276
0.0139549
0.37358
0.0146002
0.374394
0.0153405
0.375193
0.0161829
0.37597
0.0171337
0.376715
0.0181988
0.37742
0.0193827
0.378077
0.0206887
0.378678
0.0221185
0.379217
0.0236724
0.379683
0.0253479
0.380071
0.0271501
0.380378
0.0290629
0.0310235
0.34356
0.010095
-0.343199
0.343955
0.0101359
0.344386
0.0101691
0.344853
0.0102032
0.345359
0.0102453
0.345903
0.0102987
0.346485
0.0103666
0.347106
0.0104533
0.347765
0.0105637
0.34846
0.0107034
0.349191
0.0108787
0.349954
0.0110962
0.350747
0.0113633
0.351566
0.0116876
0.352405
0.0120778
0.353259
0.0125429
0.354121
0.0130935
0.354982
0.0137388
0.355836
0.0144869
0.356673
0.0153455
0.357485
0.0163216
0.358263
0.017421
0.358997
0.0186486
0.359679
0.020007
0.3603
0.0214975
0.360853
0.0231188
0.361326
0.0248753
0.361716
0.0267599
0.362023
0.0287557
0.0308092
0.325411
0.00972345
-0.32504
0.325818
0.00972921
0.326262
0.00972487
0.326745
0.00971985
0.327269
0.0097219
0.327833
0.00973473
0.328438
0.00976172
0.329083
0.00980743
0.32977
0.00987744
0.330495
0.00997794
0.331258
0.0101157
0.332056
0.0102983
0.332886
0.0105338
0.333742
0.0108309
0.334621
0.011199
0.335515
0.0116493
0.336416
0.0121926
0.337316
0.0128383
0.338208
0.0135953
0.339081
0.0144721
0.339927
0.0154759
0.340735
0.016613
0.341495
0.0178882
0.342199
0.0193031
0.342839
0.0208581
0.3434
0.0225572
0.343879
0.024396
0.34427
0.0263693
0.344575
0.028451
0.0306432
0.308189
0.00934296
-0.307808
0.308606
0.0093121
0.309062
0.0092686
0.309559
0.00922268
0.310098
0.00918283
0.31068
0.00915298
0.311305
0.00913673
0.311973
0.0091391
0.312685
0.0091662
0.313438
0.00922489
0.314231
0.00932274
0.315061
0.00946806
0.315925
0.00966987
0.316818
0.00993789
0.317734
0.0102833
0.318665
0.0107184
0.319603
0.0112541
0.320541
0.0119007
0.321468
0.0126679
0.322375
0.0135647
0.323252
0.0145989
0.324089
0.015777
0.324873
0.0171036
0.325598
0.0185777
0.32625
0.0202068
0.326819
0.0219883
0.327302
0.0239129
0.327693
0.0259779
0.327998
0.0281463
0.0305566
0.29186
0.00895697
-0.291475
0.292284
0.00888817
0.292749
0.00880389
0.293257
0.00871512
0.293808
0.00863123
0.294405
0.00855643
0.295047
0.00849451
0.295735
0.00845097
0.296469
0.00843254
0.297247
0.00844679
0.298068
0.00850209
0.298928
0.00860771
0.299824
0.00877371
0.300751
0.00901097
0.301701
0.00933284
0.302668
0.0097521
0.303642
0.0102801
0.304614
0.0109281
0.305576
0.0117067
0.306515
0.0126255
0.307421
0.0136927
0.308283
0.0149149
0.309091
0.0162957
0.309831
0.0178375
0.310492
0.0195459
0.311069
0.0214113
0.311553
0.0234293
0.311943
0.0255871
0.312258
0.0278317
0.0305681
0.276372
-0.275979
0.00856369
0.276803
0.008457
0.277276
0.00833134
0.277792
0.00819861
0.278354
0.00806914
0.278963
0.00794735
0.27962
0.00783742
0.280326
0.00774541
0.28108
0.00767876
0.281881
0.00764583
0.282727
0.0076559
0.283615
0.00771929
0.284542
0.00784728
0.2855
0.00805234
0.286484
0.0083497
0.287483
0.00875225
0.288491
0.00927232
0.289497
0.00992228
0.29049
0.0107136
0.291459
0.0116564
0.292392
0.0127595
0.293278
0.0140291
0.294107
0.0154666
0.294859
0.0170853
0.295531
0.0188743
0.296112
0.0208301
0.296593
0.0229484
0.296975
0.0252054
0.297262
0.0275446
0.0305774
29.9077
-0.707793
-29.9734
29.8793
-0.71201
29.8562
-0.708059
29.8311
-0.700354
29.7985
-0.691185
29.7662
-0.684936
29.7322
-0.677854
29.7041
-0.673032
29.6729
-0.665815
29.6474
-0.660693
29.6195
-0.653442
29.5927
-0.647264
29.5668
-0.641028
29.5414
-0.63446
29.515
-0.627561
29.4944
-0.622691
29.466
-0.613972
29.4498
-0.610996
29.4248
-0.601946
29.4091
-0.598632
29.3883
-0.590855
29.3719
-0.586138
29.3526
-0.579033
29.3372
-0.574351
29.3194
-0.567563
29.3052
-0.562791
29.2893
-0.556218
29.2753
-0.551032
29.2612
-0.54508
29.2479
-0.539669
29.2348
-0.533719
29.2226
-0.528282
29.2106
-0.522388
29.1995
-0.517106
29.1885
-0.511234
29.1781
-0.505734
29.1688
-0.500281
29.1589
-0.494379
29.1509
-0.489423
29.1419
-0.483458
29.1349
-0.478556
29.1268
-0.472614
29.1207
-0.467785
29.1135
-0.461994
29.1084
-0.45733
29.102
-0.451586
29.0978
-0.44697
29.0923
-0.441313
29.089
-0.436805
29.0843
-0.431324
29.0819
-0.426935
29.0781
-0.421519
29.0763
-0.417124
29.0734
-0.411942
29.0723
-0.407477
-0.402494
35.8502
-0.654162
-35.9037
35.7949
-0.65665
35.7296
-0.64271
35.6697
-0.640381
35.6117
-0.633148
35.5565
-0.629688
35.5009
-0.622255
35.4454
-0.61743
35.3906
-0.610986
35.3359
-0.605967
35.2822
-0.599638
35.2298
-0.594766
35.1775
-0.588727
35.1267
-0.583603
35.0762
-0.577018
35.0262
-0.572578
34.9787
-0.566391
34.929
-0.56126
34.8824
-0.555266
34.8341
-0.550315
34.788
-0.544717
34.7412
-0.539267
34.6958
-0.533567
34.6498
-0.528357
34.6053
-0.523016
34.5602
-0.517614
34.516
-0.512029
34.4717
-0.506653
34.4281
-0.501537
34.3847
-0.496218
34.3418
-0.490822
34.2989
-0.485383
34.2568
-0.48026
34.2147
-0.474985
34.1735
-0.470053
34.1322
-0.464458
34.0914
-0.459449
34.0511
-0.454104
34.011
-0.44925
33.9716
-0.444078
33.9321
-0.439057
33.8933
-0.43385
33.8545
-0.428964
33.8164
-0.423886
33.7784
-0.419292
33.741
-0.414191
33.7035
-0.409501
33.6667
-0.404565
33.6298
-0.399836
33.5939
-0.39549
33.5576
-0.390551
33.5233
-0.38722
33.4875
-0.381363
33.4538
-0.378242
33.4199
-0.373555
33.3874
-0.370017
-0.365888
29.4124
-0.637069
-29.4294
29.3831
-0.62732
29.3687
-0.628244
29.3467
-0.618264
29.3282
-0.614608
29.3064
-0.607873
29.2872
-0.602977
29.2657
-0.595887
29.2472
-0.592468
29.2273
-0.585942
29.2083
-0.58055
29.1887
-0.575171
29.1706
-0.570575
29.1514
-0.564342
29.1338
-0.559301
29.1154
-0.554146
29.0982
-0.549098
29.0803
-0.543306
29.0631
-0.538064
29.0457
-0.532852
29.0291
-0.528016
29.0121
-0.522222
28.9957
-0.517112
28.9791
-0.511788
28.9633
-0.507175
28.9473
-0.501593
28.9319
-0.496578
28.9164
-0.491093
28.9016
-0.486723
28.8867
-0.481349
28.8723
-0.476425
28.8581
-0.47112
28.8439
-0.466133
28.8306
-0.46162
28.817
-0.45643
28.8041
-0.451606
28.7911
-0.446416
28.7787
-0.441672
28.7663
-0.436888
28.7544
-0.432227
28.7426
-0.427208
28.7313
-0.422531
28.7199
-0.417564
28.7091
-0.413109
28.6982
-0.408414
28.6879
-0.403949
28.6776
-0.399118
28.6676
-0.394661
28.6578
-0.390018
28.6478
-0.385533
28.6387
-0.38143
28.6273
-0.375832
28.6191
-0.373161
28.6088
-0.368014
28.5996
-0.364319
28.5892
-0.35969
28.5793
-0.355994
28.5687
-0.351653
-0.347954
30.9335
-0.582192
-30.9884
30.8834
-0.577224
30.8328
-0.577592
30.7842
-0.569644
30.7362
-0.566598
30.6903
-0.561909
30.6436
-0.55631
30.5987
-0.550903
30.5534
-0.547208
30.5091
-0.541639
30.4651
-0.536451
30.4227
-0.532759
30.3807
-0.528587
30.3402
-0.52381
30.2997
-0.518797
30.2606
-0.514983
30.2218
-0.510288
30.1818
-0.503306
30.1442
-0.500391
30.1052
-0.493831
30.0673
-0.490108
30.0291
-0.483999
29.9906
-0.478603
29.953
-0.474211
29.9158
-0.470011
29.8796
-0.465363
29.8449
-0.461845
29.8092
-0.455394
29.7735
-0.450965
29.7383
-0.446184
29.7035
-0.441657
29.6698
-0.437406
29.6358
-0.432154
29.6025
-0.42832
29.5697
-0.423627
29.5373
-0.419196
29.5053
-0.414388
29.4742
-0.410556
29.4426
-0.40529
29.4115
-0.401165
29.382
-0.397707
29.351
-0.391506
29.3215
-0.388091
29.2911
-0.382719
29.2618
-0.379149