/*--------------------------------*- C++ -*----------------------------------*\
  =========                 |
  \\      /  F ield         | OpenFOAM: The Open Source CFD Toolbox
   \\    /   O peration     | Website:  https://openfoam.org
    \\  /    A nd           | Version:  7
     \\/     M anipulation  |
\*---------------------------------------------------------------------------*/
FoamFile
{
    version     2.0;
    format      ascii;
    class       volVectorField;
    location    "0.9975";
    object      U;
}
// * * * * * * * * * * * * * * * * * * * * * * * * * * * * * * * * * * * * * //

dimensions      [0 1 -1 0 0 0 0];

internalField   nonuniform List<vector> 
76363
(
(58.0824 -3.02977 -5.23485e-18)
(58.1457 -2.5647 -5.46745e-18)
(58.1268 -2.56339 6.71525e-18)
(58.1073 -2.56216 -6.69415e-24)
(58.2273 -2.15658 -5.70924e-18)
(58.2085 -2.15452 -6.70744e-24)
(58.189 -2.15255 -7.35995e-18)
(58.1693 -2.1506 -2.52724e-21)
(58.1492 -2.14866 7.74906e-18)
(58.3073 -1.74163 5.68889e-24)
(58.2884 -1.73908 -7.36299e-18)
(58.2688 -1.73659 1.54224e-17)
(58.2489 -1.73409 -7.92968e-18)
(58.2287 -1.7316 0)
(58.2079 -1.72914 0)
(58.3934 -1.36699 0)
(58.3746 -1.3638 8.54444e-27)
(58.355 -1.36066 -7.70061e-24)
(58.3353 -1.35749 4.15712e-18)
(58.3151 -1.35433 -4.25546e-18)
(58.2943 -1.35118 4.35781e-18)
(58.273 -1.34805 -8.92922e-18)
(58.2512 -1.34493 4.57469e-18)
(58.4821 -0.995873 6.19555e-24)
(58.4632 -0.992149 4.03182e-18)
(58.4436 -0.988446 -4.23189e-18)
(58.4238 -0.984708 4.35534e-18)
(58.4035 -0.980962 -4.45867e-18)
(58.3827 -0.97722 0)
(58.3614 -0.973484 0)
(58.3395 -0.969741 9.1362e-24)
(58.317 -0.965992 0)
(58.5735 -0.654545 -6.47803e-24)
(58.5547 -0.650244 -4.21779e-18)
(58.5351 -0.645945 -1.43568e-21)
(58.5153 -0.641595 4.56173e-18)
(58.4952 -0.637226 -8.91727e-24)
(58.4744 -0.632849 9.11136e-24)
(58.4532 -0.628468 -4.90104e-18)
(58.4313 -0.624065 5.02002e-18)
(58.4089 -0.619646 5.14585e-18)
(58.3859 -0.615197 2.19404e-21)
(58.3623 -0.610727 2.34463e-21)
(58.667 -0.322761 3.54346e-18)
(58.6481 -0.317923 4.41251e-18)
(58.6286 -0.313064 -4.64262e-18)
(58.6088 -0.30814 -9.10642e-24)
(58.5887 -0.303183 4.89437e-18)
(58.568 -0.298206 -1.00157e-17)
(58.5467 -0.293212 -1.88952e-21)
(58.5249 -0.288181 5.25804e-18)
(58.5025 -0.283121 -1.02864e-23)
(58.4795 -0.278013 5.52006e-18)
(58.4559 -0.272871 -1.13079e-17)
(58.4317 -0.26767 1.15814e-17)
(58.7627 -0.0142813 -7.06261e-24)
(58.7439 -0.00892499 4.61457e-18)
(58.7244 -0.00352126 -9.72476e-18)
(58.7048 0.00196735 5.00456e-18)
(58.6847 0.00750474 5.126e-18)
(58.6641 0.0130772 -5.24317e-18)
(58.643 0.0186814 -5.37576e-18)
(58.6212 0.024341 5.50603e-18)
(58.5989 0.0300448 1.07509e-23)
(58.576 0.0358165 1.10325e-23)
(58.5525 0.041638 5.92158e-18)
(58.5284 0.0475388 -6.06191e-18)
(58.5036 0.0534952 -2.36695e-23)
(58.8588 0.281867 -7.13508e-22)
(58.8402 0.287748 4.82442e-18)
(58.8208 0.293705 0)
(58.8012 0.299767 -1.99935e-23)
(58.7812 0.305895 5.36562e-18)
(58.7607 0.312068 -5.49184e-18)
(58.7396 0.318299 0)
(58.718 0.324585 -1.10085e-23)
(58.6957 0.330953 -5.90763e-18)
(58.6729 0.337382 -2.49128e-21)
(58.6495 0.343905 -2.64179e-21)
(58.6254 0.350494 1.26958e-17)
(58.6007 0.35719 -6.49976e-18)
(58.5754 0.363959 0)
(58.9581 0.558152 -4.03259e-18)
(58.9395 0.564576 5.04404e-18)
(58.9201 0.571107 -1.01536e-23)
(58.9006 0.577763 2.29124e-26)
(58.8807 0.584502 -5.61781e-18)
(58.8603 0.5913 5.74984e-18)
(58.8392 0.598173 -5.89003e-18)
(58.8177 0.605115 6.03514e-18)
(58.7955 0.612158 0)
(58.7728 0.619277 -1.20943e-23)
(58.7494 0.626511 -5.45535e-26)
(58.7254 0.633825 0)
(58.7007 0.641268 6.80609e-18)
(58.6755 0.648798 -6.96855e-18)
(58.6494 0.656468 7.14278e-18)
(59.0572 0.823289 -4.20957e-18)
(59.0387 0.83018 2.6369e-18)
(59.0194 0.837215 2.78986e-18)
(59 0.844398 -2.87238e-18)
(58.9801 0.851683 1.12275e-23)
(58.9598 0.859044 -3.01047e-18)
(58.9388 0.8665 3.08152e-18)
(58.9173 0.874041 0)
(58.8952 0.881706 -3.23659e-18)
(58.8726 0.889463 3.31414e-18)
(58.8493 0.897357 -2.59251e-23)
(58.8254 0.905348 -3.47767e-18)
(58.8008 0.913492 7.1214e-18)
(58.7756 0.92174 1.74311e-21)
(58.7496 0.930153 -3.73567e-18)
(58.723 0.938683 3.8283e-18)
(59.157 1.07099 2.19747e-18)
(59.1386 1.0784 -2.75648e-18)
(59.1194 1.08599 0)
(59.1001 1.09375 -3.00788e-18)
(59.0804 1.10163 3.07676e-18)
(59.0601 1.1096 3.15079e-18)
(59.0393 1.11768 -3.22486e-18)
(59.0179 1.12586 3.30683e-18)
(58.996 1.13418 1.3216e-21)
(58.9734 1.14261 -3.46824e-18)
(58.9502 1.1512 0)
(58.9265 1.1599 2.77223e-23)
(58.902 1.16877 0)
(58.8769 1.17776 -3.81665e-18)
(58.851 1.18695 3.90823e-18)
(58.8246 1.19626 -3.05093e-23)
(58.7973 1.20582 0)
(59.2572 1.30669 8.73897e-24)
(59.2389 1.31461 1.10061e-23)
(59.2198 1.32273 3.05593e-18)
(59.2006 1.33105 -3.14738e-18)
(59.181 1.33951 -3.2212e-18)
(59.1609 1.34807 3.29637e-18)
(59.1401 1.35676 -2.57511e-23)
(59.1189 1.36557 0)
(59.097 1.37454 0)
(59.0746 1.38363 -1.38627e-23)
(59.0515 1.3929 0)
(59.0278 1.4023 -2.90752e-23)
(59.0034 1.4119 0)
(58.9784 1.42163 -7.51644e-26)
(58.9526 1.43157 0)
(58.9263 1.44166 4.18958e-18)
(58.8991 1.45202 2.23232e-21)
(58.8711 1.46267 -4.23938e-18)
(59.3572 1.52791 -1.82674e-23)
(59.339 1.53634 3.01228e-18)
(59.32 1.545 9.82749e-22)
(59.3009 1.55388 1.03309e-21)
(59.2814 1.56292 -3.36993e-18)
(59.2614 1.57207 -3.45052e-18)
(59.2408 1.58137 3.53126e-18)
(59.2196 1.5908 0)
(59.1979 1.60042 1.41261e-23)
(59.1756 1.61017 0)
(59.1526 1.62013 3.88895e-18)
(59.1291 1.63022 -3.98136e-18)
(59.1048 1.64053 -4.07815e-18)
(59.0799 1.65099 4.17473e-18)
(59.0543 1.66169 0)
(59.0281 1.67255 3.34627e-23)
(59.001 1.68372 4.44904e-18)
(58.9731 1.69519 -4.42881e-18)
(58.9445 1.70703 -3.38733e-23)
(59.457 1.73775 -2.49958e-18)
(59.4389 1.74666 3.14815e-18)
(59.42 1.75584 -3.34501e-18)
(59.401 1.76526 0)
(59.3817 1.77485 3.52917e-18)
(59.3617 1.78459 -3.60673e-18)
(59.3413 1.79446 3.698e-18)
(59.3202 1.80452 -3.78667e-18)
(59.2986 1.81473 -1.48183e-23)
(59.2764 1.82515 0)
(59.2536 1.83572 -3.10754e-23)
(59.2301 1.84653 3.17332e-23)
(59.206 1.85749 -4.26619e-18)
(59.1812 1.86871 -2.07177e-21)
(59.1558 1.88009 4.47144e-18)
(59.1296 1.89175 4.58069e-18)
(59.1027 1.90366 -4.6206e-18)
(59.075 1.91595 4.64066e-18)
(59.0465 1.92861 -4.63651e-18)
(59.556 1.9349 2.60971e-18)
(59.538 1.9443 -6.57825e-18)
(59.5193 1.954 3.49965e-18)
(59.5004 1.96396 -3.60815e-18)
(59.4812 1.97411 7.37995e-18)
(59.4615 1.98441 -3.77576e-18)
(59.4411 1.99488 0)
(59.4202 2.00551 3.96308e-18)
(59.3987 2.01637 -4.05702e-18)
(59.3767 2.02739 -4.15661e-18)
(59.354 2.03865 8.50817e-18)
(59.3307 2.05008 -4.35573e-18)
(59.3067 2.06177 -8.77078e-26)
(59.2822 2.07364 0)
(59.2568 2.08579 0)
(59.2309 2.09813 -3.64943e-23)
(59.2041 2.11085 -4.85397e-18)
(59.1765 2.12391 -2.57842e-21)
(59.1482 2.1374 4.84864e-18)
(59.119 2.1513 -3.70544e-23)
(59.6542 2.12112 2.72422e-18)
(59.6364 2.13099 -6.87337e-18)
(59.6178 2.1412 3.66112e-18)
(59.5991 2.15169 1.43797e-23)
(59.58 2.16237 3.75962e-26)
(59.5604 2.17323 -3.94817e-18)
(59.5402 2.18425 4.0453e-18)
(59.5195 2.1955 0)
(59.4982 2.20691 0)
(59.4762 2.21858 0)
(59.4538 2.23043 0)
(59.4306 2.24255 6.95015e-23)
(59.4069 2.25485 -9.20498e-26)
(59.3824 2.26745 -4.77647e-18)
(59.3573 2.28024 4.88851e-18)
(59.3314 2.29337 7.63733e-23)
(59.3049 2.30678 0)
(59.2775 2.32064 3.86578e-23)
(59.2493 2.33491 0)
(59.2204 2.34964 0)
(59.1906 2.36479 -3.8725e-23)
(59.7516 2.29614 -2.8434e-18)
(59.7339 2.30646 1.79488e-18)
(59.7154 2.31716 1.46288e-23)
(59.6969 2.32815 1.97452e-18)
(59.678 2.33936 6.29972e-22)
(59.6585 2.35075 -4.12901e-18)
(59.6386 2.36231 2.11555e-18)
(59.618 2.37412 1.65122e-23)
(59.5969 2.38611 2.22007e-18)
(59.5751 2.39837 8.57358e-22)
(59.5529 2.41081 -4.65319e-18)
(59.5299 2.42356 4.76268e-18)
(59.5063 2.43649 -4.8767e-18)
(59.482 2.44975 -1.09398e-21)
(59.4572 2.46321 5.11151e-18)
(59.4315 2.47703 -5.23175e-18)
(59.4052 2.49116 -1.32455e-21)
(59.378 2.50576 2.64117e-18)
(59.3501 2.52082 0)
(59.3213 2.53635 -2.64627e-18)
(59.2917 2.55234 -1.46014e-21)
(59.8484 2.46114 1.48401e-18)
(59.8309 2.47188 -1.87488e-18)
(59.8126 2.48303 0)
(59.7942 2.49449 -1.57343e-23)
(59.7755 2.50618 0)
(59.7562 2.51806 3.29685e-23)
(59.7364 2.53015 2.21179e-18)
(59.716 2.54245 -2.26607e-18)
(59.6951 2.55501 -2.32104e-18)
(59.6736 2.56778 2.3758e-18)
(59.6514 2.58084 7.42141e-23)
(59.6288 2.59411 2.49055e-18)
(59.6054 2.60771 -2.54802e-18)
(59.5814 2.62152 -3.97619e-23)
(59.5567 2.63568 -2.67282e-18)
(59.5314 2.65009 2.73369e-18)
(59.5052 2.66495 -2.7619e-18)
(59.4783 2.68025 2.75051e-18)
(59.4506 2.69606 0)
(59.4221 2.71236 -2.76071e-18)
(59.3928 2.72916 5.52494e-18)
(59.3626 2.74646 -5.52714e-18)
(59.9447 2.61615 -1.54883e-18)
(59.9274 2.62727 -4.94044e-22)
(59.9092 2.63884 2.0942e-18)
(59.8911 2.65073 1.6496e-23)
(59.8725 2.66286 -1.68263e-23)
(59.8535 2.67519 -2.25969e-18)
(59.8339 2.68776 2.31198e-18)
(59.8137 2.70053 1.80574e-23)
(59.793 2.71359 2.42676e-18)
(59.7718 2.72687 -2.4838e-18)
(59.7499 2.74046 -3.88394e-23)
(59.7274 2.75428 -3.97639e-23)
(59.7043 2.76844 -2.66419e-18)
(59.6806 2.78283 5.45361e-18)
(59.6561 2.7976 1.32302e-21)
(59.6311 2.81263 -2.85597e-18)
(59.6052 2.82814 -2.88261e-18)
(59.5786 2.84413 2.87109e-18)
(59.5512 2.86065 0)
(59.5231 2.87769 0)
(59.494 2.89526 4.3929e-23)
(59.4641 2.91338 2.88458e-18)
(60.0403 2.76185 -1.77745e-22)
(60.0232 2.77331 4.08997e-18)
(60.0053 2.78525 -2.18971e-18)
(59.9873 2.79752 -2.25839e-18)
(59.969 2.81005 4.62038e-18)
(59.9502 2.82281 7.14685e-22)
(59.9309 2.83577 7.53513e-22)
(59.911 2.84902 -2.47686e-18)
(59.8906 2.86249 0)
(59.8695 2.87628 0)
(59.848 2.89031 2.65816e-18)
(59.8258 2.90469 -5.43881e-18)
(59.803 2.9193 2.78319e-18)
(59.7795 2.93431 -2.84959e-18)
(59.7555 2.94956 5.8322e-18)
(59.7307 2.96525 -2.9825e-18)
(59.7052 2.98134 9.13239e-23)
(59.6789 2.99799 -3.00469e-18)
(59.6519 3.01518 3.00227e-18)
(59.6241 3.03294 0)
(59.5954 3.05125 -3.0081e-18)
(59.5659 3.07015 3.00805e-18)
(59.5355 3.08963 3.0112e-18)
(60.1344 2.89829 0)
(60.1175 2.91004 2.13568e-18)
(60.0999 2.9223 -2.28927e-18)
(60.0822 2.93492 0)
(60.0642 2.9478 0)
(60.0457 2.96092 0)
(60.0266 2.97426 4.60019e-26)
(60.007 2.9879 2.58973e-18)
(59.987 3.00179 9.05482e-22)
(59.9663 3.01601 -5.42592e-18)
(59.9451 3.03048 2.77663e-18)
(59.9232 3.04532 -4.33014e-23)
(59.9008 3.06042 -2.90882e-18)
(59.8777 3.07593 2.9753e-18)
(59.8541 3.09171 0)
(59.8296 3.10796 0)
(59.8046 3.12463 -4.77105e-23)
(59.7787 3.1419 -4.78902e-23)
(59.7521 3.15974 0)
(59.7247 3.17819 0)
(59.6965 3.19723 4.79306e-23)
(59.6674 3.21688 9.57804e-23)
(59.6374 3.23716 0)
(60.2253 3.02571 -1.63425e-22)
(60.2088 3.03773 4.45932e-18)
(60.1914 3.05028 -2.393e-18)
(60.1741 3.0632 -1.88062e-23)
(60.1564 3.0764 -1.9227e-23)
(60.1383 3.08984 0)
(60.1196 3.10354 4.0301e-23)
(60.1005 3.11751 0)
(60.0807 3.1318 -2.77044e-18)
(60.0605 3.14637 2.83486e-18)
(60.0397 3.1613 0)
(60.0183 3.17651 -2.96914e-18)
(59.9963 3.19213 3.03623e-18)
(59.9737 3.20803 4.7478e-23)
(59.9504 3.22438 0)
(59.9266 3.24107 0)
(59.902 3.25835 4.98968e-23)
(59.8766 3.27619 -4.97429e-23)
(59.8505 3.29467 3.27296e-18)
(59.8236 3.31378 -6.54343e-18)
(59.7959 3.33352 6.54597e-18)
(59.7673 3.35392 -3.2725e-18)
(59.7379 3.37498 0)
(59.7075 3.39673 9.98411e-23)
(60.3111 3.1439 0)
(60.295 3.15616 -1.77394e-23)
(60.2781 3.16898 2.50157e-18)
(60.2611 3.18218 -5.15804e-18)
(60.2439 3.19567 -6.86726e-22)
(60.2262 3.20941 5.39356e-18)
(60.208 3.22343 -5.51936e-18)
(60.1893 3.23773 5.65458e-18)
(60.1701 3.25237 -2.89313e-18)
(60.1504 3.2673 2.96218e-18)
(60.1301 3.28262 -3.02866e-18)
(60.1093 3.29822 3.10054e-18)
(60.0878 3.31427 -3.17002e-18)
(60.0658 3.33062 0)
(60.0431 3.34745 -5.06099e-23)
(60.0198 3.36463 -3.39482e-18)
(59.9958 3.38244 6.83211e-18)
(59.971 3.40085 -3.40428e-18)
(59.9455 3.41994 0)
(59.9193 3.43969 1.04139e-22)
(59.8922 3.46013 3.41423e-18)
(59.8643 3.48125 -3.41255e-18)
(59.8355 3.50309 0)
(59.8058 3.52566 -1.04359e-22)
(60.3909 3.25314 -9.58599e-19)
(60.3752 3.2656 1.21467e-18)
(60.3588 3.27863 -1.99177e-23)
(60.3424 3.29206 -1.34741e-18)
(60.3257 3.30579 2.75455e-18)
(60.3085 3.31979 -1.40843e-18)
(60.2908 3.33408 0)
(60.2727 3.34866 2.25548e-23)
(60.254 3.36361 -4.61115e-23)
(60.2349 3.37887 0)
(60.2152 3.39453 -4.82042e-23)
(60.195 3.41051 1.61838e-18)
(60.1742 3.42695 -1.65435e-18)
(60.1528 3.44371 5.16026e-23)
(60.1308 3.46099 1.73264e-18)
(60.1082 3.47865 -1.76989e-18)
(60.0849 3.49698 5.44352e-23)
(60.0609 3.51594 -1.77611e-18)
(60.0361 3.53563 1.77944e-18)
(60.0106 3.55602 -5.43633e-23)
(59.9843 3.57713 5.437e-23)
(59.9572 3.59898 -1.08598e-22)
(59.9292 3.6216 0)
(59.9003 3.64499 -1.78021e-18)
(60.4644 3.35358 1.99996e-18)
(60.4493 3.36619 -2.53506e-18)
(60.4333 3.37939 1.36481e-18)
(60.4175 3.39301 0)
(60.4013 3.40693 1.43869e-18)
(60.3848 3.42114 4.11334e-22)
(60.3677 3.43565 -1.50515e-18)
(60.3502 3.45048 -1.54213e-18)
(60.3322 3.46569 -4.34234e-22)
(60.3137 3.48122 -4.91163e-22)
(60.2947 3.49718 -4.75121e-22)
(60.2753 3.51349 1.68837e-18)
(60.2552 3.53028 0)
(60.2346 3.54742 -1.17765e-25)
(60.2133 3.56511 5.51953e-23)
(60.1916 3.58322 5.63884e-23)
(60.1691 3.60203 -1.85823e-18)
(60.1459 3.62152 -8.24374e-22)
(60.122 3.64178 1.85517e-18)
(60.0973 3.66279 5.65421e-23)
(60.0719 3.68458 0)
(60.0457 3.70716 1.33412e-25)
(60.0186 3.73055 -1.85482e-18)
(59.9906 3.75477 1.85358e-18)
(59.9616 3.77985 1.85485e-18)
(60.5317 3.44549 0)
(60.5171 3.45819 1.32227e-18)
(60.5018 3.47151 -1.4253e-18)
(60.4865 3.48525 0)
(60.471 3.49931 -2.28988e-23)
(60.4551 3.51367 -2.34599e-23)
(60.4387 3.52835 -2.40089e-23)
(60.422 3.54336 -1.61004e-18)
(60.4047 3.55877 1.64657e-18)
(60.387 3.57453 0)
(60.3688 3.59074 0)
(60.3501 3.60733 -5.37086e-23)
(60.3309 3.62443 0)
(60.3112 3.64192 -5.62572e-23)
(60.2908 3.65998 0)
(60.27 3.6785 5.86367e-23)
(60.2484 3.69776 -5.91785e-23)
(60.2262 3.71775 0)
(60.2032 3.73857 0)
(60.1796 3.76019 -5.90634e-23)
(60.1552 3.78263 5.89152e-23)
(60.13 3.80593 5.90273e-23)
(60.1039 3.8301 0)
(60.0769 3.85516 1.18005e-22)
(60.049 3.88114 1.93146e-18)
(60.5928 3.5291 -1.08738e-18)
(60.5788 3.54183 1.37838e-18)
(60.5642 3.55519 0)
(60.5497 3.56899 2.33794e-23)
(60.5349 3.58311 4.78577e-23)
(60.5197 3.59755 0)
(60.5041 3.61232 0)
(60.4882 3.62746 -1.68057e-18)
(60.4717 3.643 1.7184e-18)
(60.4549 3.65894 -5.36018e-23)
(60.4376 3.67534 0)
(60.4199 3.69215 1.1215e-22)
(60.4016 3.70951 -1.87746e-18)
(60.3829 3.7273 1.91925e-18)
(60.3635 3.7457 0)
(60.3437 3.7646 -6.12094e-23)
(60.3232 3.78428 0)
(60.3021 3.80475 0)
(60.2802 3.8261 0)
(60.2577 3.84832 6.14009e-23)
(60.2345 3.87142 -1.35906e-25)
(60.2104 3.89544 2.01248e-18)
(60.1855 3.92039 -4.02268e-18)
(60.1597 3.94631 2.01016e-18)
(60.133 3.97322 -1.22817e-22)
(60.6479 3.6046 -1.73073e-23)
(60.6346 3.61726 -2.19057e-23)
(60.6207 3.63059 0)
(60.607 3.64435 -4.88364e-23)
(60.593 3.65845 -2.49951e-23)
(60.5787 3.67289 1.67396e-18)
(60.564 3.68768 -3.42608e-18)
(60.549 3.70287 3.50624e-18)
(60.5335 3.71847 -1.79275e-18)
(60.5177 3.73451 1.83419e-18)
(60.5014 3.75104 -1.87338e-18)
(60.4847 3.76803 -1.1694e-22)
(60.4675 3.78559 -1.95663e-18)
(60.4499 3.80363 -5.80825e-22)
(60.4317 3.82233 2.04327e-18)
(60.4131 3.84158 0)
(60.3938 3.86167 0)
(60.3739 3.88259 6.38946e-23)
(60.3534 3.90446 2.09926e-18)
(60.3322 3.92727 6.72618e-22)
(60.3102 3.95103 7.57393e-22)
(60.2875 3.97578 -2.0943e-18)
(60.2639 4.00154 -2.09398e-18)
(60.2395 4.02835 2.09172e-18)
(60.2141 4.05622 2.09133e-18)
(60.1878 4.08518 -4.17889e-18)
(60.6969 3.67215 1.18084e-18)
(60.6845 3.68465 3.41463e-26)
(60.6715 3.69784 0)
(60.6586 3.71148 5.09453e-23)
(60.6456 3.72546 0)
(60.6322 3.7398 0)
(60.6185 3.75453 -1.78704e-18)
(60.6045 3.76968 1.82739e-18)
(60.5902 3.78527 0)
(60.5755 3.80134 -5.83765e-23)
(60.5604 3.81792 5.9559e-23)
(60.5449 3.83502 6.09982e-23)
(60.529 3.85273 2.03831e-18)
(60.5127 3.87098 6.01906e-22)
(60.4958 3.88994 5.76983e-22)
(60.4785 3.90951 -2.17009e-18)
(60.4606 3.92997 6.68502e-23)
(60.4421 3.95133 -1.3321e-22)
(60.423 3.97371 2.18575e-18)
(60.4033 3.99711 -2.18385e-18)
(60.3828 4.02154 2.18227e-18)
(60.3615 4.04704 -2.17933e-18)
(60.3395 4.07364 6.65377e-23)
(60.3166 4.10137 2.17656e-18)
(60.2927 4.13025 -2.17378e-18)
(60.2679 4.16031 1.3275e-22)
(60.7397 3.73177 1.22973e-18)
(60.7282 3.744 2.37959e-23)
(60.7161 3.75695 -1.69237e-18)
(60.7043 3.77034 -2.56669e-22)
(60.6923 3.78411 1.78054e-18)
(60.6801 3.79826 0)
(60.6676 3.81282 2.83978e-23)
(60.6548 3.82784 0)
(60.6417 3.84334 -1.94742e-18)
(60.6283 3.85935 1.99067e-18)
(60.6146 3.87592 2.03523e-18)
(60.6005 3.89307 4.80215e-22)
(60.586 3.91087 -2.12187e-18)
(60.5711 3.92929 -6.62339e-23)
(60.5558 3.94848 2.21226e-18)
(60.5401 3.96833 -2.25646e-18)
(60.5238 3.98915 -1.29138e-25)
(60.5069 4.01094 6.93836e-23)
(60.4894 4.03384 6.93432e-23)
(60.4713 4.05785 -2.27344e-18)
(60.4525 4.08298 2.26977e-18)
(60.433 4.10927 0)
(60.4126 4.13675 2.26498e-18)
(60.3914 4.16546 -2.26195e-18)
(60.3693 4.19542 2.26015e-18)
(60.3461 4.22666 -2.25706e-18)
(60.7761 3.78355 0)
(60.7656 3.79538 0)
(60.7547 3.80796 8.83045e-19)
(60.7441 3.82099 -1.81492e-18)
(60.7333 3.83442 9.27972e-19)
(60.7224 3.84827 -2.89408e-23)
(60.7112 3.86256 -2.96297e-23)
(60.6998 3.87735 0)
(60.6881 3.89266 0)
(60.6762 3.90854 1.03638e-18)
(60.664 3.92502 -1.05902e-18)
(60.6515 3.94214 -6.61109e-23)
(60.6387 3.95998 -1.10431e-18)
(60.6255 3.97853 1.12793e-18)
(60.6119 3.99792 0)
(60.598 4.01804 1.17233e-18)
(60.5835 4.03923 -1.19061e-18)
(60.5684 4.06144 0)
(60.5528 4.08488 -1.44408e-22)
(60.5366 4.10952 -1.38107e-25)
(60.5197 4.13539 0)
(60.5021 4.16252 -7.18438e-23)
(60.4836 4.19094 -7.1743e-23)
(60.4643 4.22071 1.43313e-22)
(60.444 4.25184 -2.86489e-22)
(60.4228 4.28436 3.15697e-25)
(60.8055 3.82734 0)
(60.7963 3.83863 -2.5701e-23)
(60.7867 3.85071 -2.81387e-23)
(60.7774 3.86326 -9.45825e-19)
(60.7681 3.87623 9.66932e-19)
(60.7586 3.88966 6.03371e-23)
(60.7489 3.90357 0)
(60.7391 3.91802 1.03282e-18)
(60.7291 3.93305 1.01132e-22)
(60.7189 3.9487 -1.07847e-18)
(60.7085 3.96502 -1.10206e-18)
(60.6978 3.98206 1.12562e-18)
(60.6869 3.99989 0)
(60.6757 4.01851 1.17272e-18)
(60.664 4.03811 -1.19206e-18)
(60.6521 4.05847 7.41932e-23)
(60.6397 4.08008 -1.2383e-18)
(60.6267 4.10274 1.22698e-18)
(60.6132 4.12675 1.3505e-25)
(60.5991 4.1521 -1.39166e-25)
(60.5844 4.17878 0)
(60.5689 4.20684 7.48201e-23)
(60.5525 4.23628 1.22122e-18)
(60.5354 4.26721 -1.22067e-18)
(60.5172 4.29963 -1.21846e-18)
(60.498 4.33355 1.21553e-18)
(60.4777 4.36903 -1.21356e-18)
(60.8281 3.86314 6.90251e-19)
(60.8202 3.87373 -1.7486e-18)
(60.8121 3.8852 9.62136e-19)
(60.8043 3.89714 9.85369e-19)
(60.7965 3.90953 -1.00719e-18)
(60.7887 3.92242 -3.14312e-23)
(60.7807 3.93585 -3.20872e-23)
(60.7727 3.94986 3.28223e-23)
(60.7646 3.9645 -1.09826e-18)
(60.7563 3.97984 2.24367e-18)
(60.7479 3.99591 -2.29164e-18)
(60.7393 4.01278 -7.48449e-23)
(60.7305 4.03053 1.19348e-18)
(60.7215 4.04917 1.21855e-18)
(60.7121 4.06895 -2.4691e-18)
(60.7025 4.0895 1.25952e-18)
(60.6924 4.11155 1.28041e-18)
(60.6818 4.13463 -2.55013e-18)
(60.6707 4.15921 2.55293e-18)
(60.659 4.18535 -1.27977e-18)
(60.6466 4.21283 1.27019e-18)
(60.6335 4.24209 2.57521e-22)
(60.6195 4.27255 2.71137e-22)
(60.6047 4.30477 3.65007e-22)
(60.5889 4.33874 -1.26529e-18)
(60.572 4.37417 1.25822e-18)
(60.5539 4.41143 -1.25884e-18)
(60.8424 3.89099 -7.13318e-19)
(60.8362 3.90073 1.80445e-18)
(60.8297 3.91142 -2.008e-18)
(60.8237 3.92259 1.02612e-18)
(60.8177 3.93425 6.4006e-23)
(60.8117 3.94645 0)
(60.8057 3.95924 1.09473e-18)
(60.7997 3.97269 -3.67134e-23)
(60.7937 3.98684 -1.14208e-18)
(60.7876 4.00177 0)
(60.7814 4.01754 1.19088e-18)
(60.7752 4.03424 -1.21557e-18)
(60.7688 4.05192 0)
(60.7622 4.07064 -7.72926e-23)
(60.7553 4.09069 7.7836e-23)
(60.7482 4.11151 0)
(60.7407 4.13405 -8.07719e-23)
(60.7328 4.158 -1.31891e-18)
(60.7243 4.18286 1.29527e-18)
(60.7155 4.21059 0)
(60.7057 4.23816 0)
(60.6956 4.26945 -8.43983e-23)
(60.6843 4.3006 -1.56858e-22)
(60.672 4.3339 -1.587e-22)
(60.6589 4.36993 0)
(60.6444 4.40661 1.57517e-22)
(60.6288 4.4459 -1.60246e-22)
(60.849 3.91044 -1.04747e-26)
(60.8443 3.91926 9.22763e-19)
(60.8397 3.92912 -1.04562e-18)
(60.8355 3.93951 -3.25939e-23)
(60.8314 3.95044 -3.332e-23)
(60.8275 3.96191 -1.11485e-18)
(60.8236 3.97398 2.27729e-18)
(60.8199 3.9867 -1.16276e-18)
(60.8162 4.00015 3.62463e-23)
(60.8126 4.01437 -1.21177e-18)
(60.809 4.02948 1.23686e-18)
(60.8054 4.04557 -1.26222e-18)
(60.8015 4.06288 2.56279e-18)
(60.7975 4.08113 -7.45612e-23)
(60.7932 4.10142 -7.104e-23)
(60.7888 4.12234 -1.2997e-18)
(60.784 4.1446 8.25758e-23)
(60.7786 4.17025 0)
(60.7727 4.1949 -7.86315e-23)
(60.7669 4.22421 0)
(60.7607 4.25338 0)
(60.7533 4.28513 0)
(60.7447 4.31937 1.36213e-18)
(60.7347 4.3532 -1.27152e-18)
(60.7249 4.39382 0)
(60.7132 4.43074 1.54483e-22)
(60.7004 4.47252 1.36862e-18)
(60.8472 3.92257 7.38231e-19)
(60.8443 3.93 0)
(60.8417 3.93854 0)
(60.8393 3.94765 3.3746e-23)
(60.837 3.95751 1.12866e-18)
(60.8346 3.9681 -1.15226e-18)
(60.8325 3.97947 -1.17597e-18)
(60.8306 3.99154 1.22296e-22)
(60.8288 4.0044 2.46721e-18)
(60.8271 4.01836 -2.85994e-22)
(60.8253 4.03405 -1.19581e-18)
(60.8238 4.04971 0)
(60.8214 4.07129 0)
(60.82 4.08577 -9.33596e-19)
(60.8182 4.10993 9.45972e-19)
(60.8168 4.12713 7.14341e-26)
(60.816 4.15019 0)
(60.8131 4.18133 1.01623e-18)
(60.8104 4.20549 -1.57011e-18)
(60.808 4.23126 8.20934e-19)
(60.8057 4.25987 0)
(60.8031 4.29423 0)
(60.7988 4.32945 6.69298e-23)
(60.7923 4.36059 0)
(60.7848 4.40385 0)
(60.7762 4.44669 -1.6987e-22)
(60.7659 4.48729 0)
(60.7556 4.53876 0)
(60.8324 3.92837 6.98637e-19)
(60.8311 3.93431 -8.50696e-19)
(60.83 3.94297 0)
(60.8294 3.9509 0)
(60.8288 3.96337 0)
(60.8285 3.97244 7.59188e-19)
(60.8289 3.98147 -1.76455e-18)
(60.8299 3.99106 1.08506e-18)
(60.8313 4.00327 0)
(60.8326 4.01747 7.14347e-23)
(60.8339 4.03073 0)
(60.8358 4.04564 7.66857e-23)
(60.8382 4.06243 0)
(60.8407 4.08084 -1.36532e-18)
(60.843 4.09984 2.86758e-22)
(60.8455 4.12093 3.95069e-22)
(60.848 4.14367 1.48361e-18)
(60.8502 4.16866 -9.03206e-23)
(60.8521 4.19541 -8.99463e-23)
(60.8531 4.22396 0)
(60.8534 4.25482 0)
(60.8533 4.28738 0)
(60.8519 4.33887 0)
(60.8494 4.37463 0)
(60.8464 4.41571 9.15881e-19)
(60.8415 4.45561 -9.78927e-19)
(60.8332 4.49308 1.38412e-22)
(60.8229 4.54681 0)
(60.8076 3.92596 -2.35294e-23)
(60.8088 3.93181 -3.43729e-23)
(60.8101 3.93868 0)
(60.8121 3.94584 0)
(60.8149 3.95336 5.35812e-19)
(60.8184 3.96129 -5.81835e-19)
(60.8223 3.97007 3.73099e-23)
(60.8263 3.97986 6.14828e-19)
(60.8306 3.99068 -6.23453e-19)
(60.8354 4.0026 0)
(60.8406 4.01598 -6.67492e-19)
(60.8459 4.03064 6.74174e-19)
(60.8515 4.04694 -6.95316e-19)
(60.8574 4.06471 7.19998e-19)
(60.8634 4.08431 0)
(60.8695 4.10567 9.22043e-23)
(60.8756 4.1289 1.87673e-22)
(60.8813 4.15438 -9.34479e-23)
(60.8867 4.18213 9.3237e-23)
(60.8914 4.21221 -7.60374e-19)
(60.8954 4.24483 2.20325e-22)
(60.898 4.28037 7.55003e-19)
(60.9017 4.32085 -7.78806e-19)
(60.9042 4.35954 6.94123e-19)
(60.906 4.40228 -1.81918e-22)
(60.9054 4.46754 0)
(60.902 4.51195 -2.42172e-25)
(60.8959 4.5571 -1.29529e-22)
(60.7699 3.91673 -4.46679e-19)
(60.7736 3.92072 1.72747e-22)
(60.7779 3.9254 5.62386e-19)
(60.7831 3.93068 0)
(60.789 3.93659 0)
(60.7956 3.94324 0)
(60.8027 3.95083 -3.86968e-23)
(60.8102 3.95951 -6.46378e-19)
(60.8183 3.96939 6.59521e-19)
(60.8268 3.98054 0)
(60.8358 3.99308 8.43733e-23)
(60.8451 4.00711 0)
(60.8547 4.02254 0)
(60.8645 4.03974 6.98439e-26)
(60.8746 4.05902 7.56747e-19)
(60.8847 4.08063 -3.17401e-22)
(60.8949 4.10436 -7.9288e-19)
(60.9049 4.13058 7.91618e-19)
(60.9145 4.15942 -7.88739e-19)
(60.9237 4.191 0)
(60.932 4.22543 -7.81854e-19)
(60.9395 4.26292 7.78726e-19)
(60.9463 4.30404 -1.89275e-22)
(60.9521 4.34755 1.88256e-22)
(60.9558 4.39349 1.90043e-22)
(60.959 4.444 1.84362e-22)
(60.9626 4.49468 -3.98688e-25)
(60.9625 4.57146 3.05498e-22)
(60.7183 3.89912 4.70341e-19)
(60.7249 3.9009 -5.95019e-19)
(60.7323 3.90337 1.39175e-26)
(60.7407 3.90661 -3.73406e-23)
(60.7499 3.91066 -6.29714e-19)
(60.7598 3.91565 6.46597e-19)
(60.7705 3.92173 0)
(60.7818 3.92904 -6.74774e-19)
(60.7938 3.9377 6.89103e-19)
(60.8065 3.94784 -8.59049e-23)
(60.8197 3.95959 0)
(60.8334 3.97308 7.3291e-19)
(60.8475 3.98845 -7.47889e-19)
(60.8619 4.00577 6.1661e-26)
(60.8764 4.02515 0)
(60.8911 4.04647 -9.69281e-23)
(60.9059 4.07033 0)
(60.9204 4.09747 -8.17067e-19)
(60.9347 4.12755 1.6275e-18)
(60.9486 4.16067 -8.10181e-19)
(60.9617 4.19699 0)
(60.9738 4.23659 8.02042e-19)
(60.9849 4.27959 -7.98343e-19)
(60.9946 4.32586 -3.71044e-25)
(61.0026 4.37534 1.92772e-22)
(61.009 4.42887 -1.92203e-22)
(61.0132 4.48433 -4.24648e-25)
(61.0167 4.54347 -1.91251e-22)
(60.6528 3.87293 0)
(60.6626 3.87257 0)
(60.6733 3.87288 -3.84352e-23)
(60.685 3.87406 3.92576e-23)
(60.6976 3.87618 -4.02277e-23)
(60.7112 3.87938 4.11449e-23)
(60.7257 3.88381 0)
(60.741 3.88961 -7.02127e-19)
(60.7572 3.89692 7.16834e-19)
(60.7741 3.90588 1.7852e-22)
(60.7918 3.91666 -9.10096e-23)
(60.8102 3.92939 7.60156e-19)
(60.8291 3.94426 -7.75203e-19)
(60.8485 3.96143 9.63182e-23)
(60.8682 3.98116 0)
(60.888 4.00336 0)
(60.9078 4.02817 -8.19404e-19)
(60.9274 4.0555 8.32474e-19)
(60.9467 4.08689 0)
(60.9655 4.12169 0)
(60.9837 4.16004 0)
(61.0009 4.20199 8.25078e-19)
(61.0168 4.24768 -8.21308e-19)
(61.0311 4.29711 -8.16378e-19)
(61.0435 4.35023 8.11921e-19)
(61.0537 4.40717 0)
(61.0615 4.46749 -8.02612e-19)
(61.0665 4.53202 8.19126e-19)
(60.5718 3.83924 -3.14343e-23)
(60.5848 3.83657 0)
(60.599 3.83454 6.57827e-19)
(60.6143 3.83345 -6.72593e-19)
(60.6307 3.83344 4.18977e-23)
(60.6483 3.83463 7.00597e-19)
(60.6669 3.8372 -4.28062e-22)
(60.6865 3.84131 -1.45845e-18)
(60.7072 3.8471 7.43737e-19)
(60.7289 3.85476 -7.57819e-19)
(60.7515 3.86446 5.48819e-22)
(60.7748 3.87636 4.82369e-22)
(60.7989 3.89066 8.02173e-19)
(60.8236 3.90753 8.15965e-19)
(60.8488 3.92723 -8.29784e-19)
(60.8742 3.94992 -8.39142e-19)
(60.8998 3.97581 6.88283e-22)
(60.9251 4.00499 8.49393e-19)
(60.95 4.03705 8.51387e-19)
(60.9743 4.07323 -8.46788e-19)
(60.9977 4.11414 0)
(61.0201 4.15899 2.07055e-22)
(61.0412 4.20789 8.42663e-19)
(61.0605 4.26088 -1.67566e-18)
(61.0777 4.31799 8.32956e-19)
(61.0923 4.37921 0)
(61.1042 4.44444 -8.22314e-19)
(61.1128 4.51356 8.17445e-19)
(61.1176 4.58701 -1.98005e-22)
(60.4742 3.79806 3.25791e-23)
(60.4907 3.7929 6.6101e-19)
(60.5086 3.78834 -1.3711e-18)
(60.5277 3.78478 4.18742e-22)
(60.5481 3.78241 7.14084e-19)
(60.5699 3.7814 0)
(60.593 3.78192 7.41502e-19)
(60.6174 3.78415 -7.56315e-19)
(60.6429 3.78828 7.69873e-19)
(60.6697 3.79449 -7.84824e-19)
(60.6976 3.80299 -6.29929e-27)
(60.7264 3.81398 9.93105e-23)
(60.7562 3.82767 1.01066e-22)
(60.7866 3.84425 0)
(60.8177 3.86399 8.55551e-19)
(60.8491 3.88708 -8.67173e-19)
(60.8808 3.91372 8.76277e-19)
(60.9125 3.94422 -6.45834e-22)
(60.9437 3.979 -8.69188e-19)
(60.974 4.01789 0)
(61.0034 4.06029 -8.63001e-19)
(61.0314 4.10751 8.576e-19)
(61.0578 4.16015 8.63912e-19)
(61.0824 4.21722 -8.58844e-19)
(61.1046 4.27879 0)
(61.124 4.34483 2.06489e-22)
(61.1403 4.41526 0)
(61.153 4.48995 0)
(61.1619 4.56854 -8.29069e-19)
(60.3587 3.75002 -5.54641e-19)
(60.3788 3.74209 -8.35816e-23)
(60.4006 3.73473 0)
(60.4239 3.72842 4.69259e-26)
(60.4486 3.72343 0)
(60.475 3.71994 -7.54359e-19)
(60.503 3.71816 6.31832e-22)
(60.5324 3.71829 1.56591e-18)
(60.5633 3.72053 -7.97422e-19)
(60.5957 3.72512 -9.90369e-23)
(60.6293 3.73228 -1.95047e-26)
(60.6641 3.74223 8.39242e-19)
(60.7 3.75523 -8.54564e-19)
(60.7368 3.77148 0)
(60.7744 3.79129 0)
(60.8124 3.81485 0)
(60.8507 3.84238 1.10131e-22)
(60.8889 3.87418 -1.10906e-22)
(60.9268 3.91072 1.09735e-22)
(60.964 3.95221 -1.08472e-22)
(61 3.99864 1.07142e-22)
(61.0343 4.0498 -1.05808e-22)
(61.0666 4.10511 1.06224e-22)
(61.0967 4.1666 0)
(61.1242 4.23301 0)
(61.1486 4.3043 -4.93852e-25)
(61.1695 4.38036 -2.09348e-22)
(61.1863 4.46101 2.07763e-22)
(61.1989 4.54581 0)
(60.2247 3.69516 2.88199e-19)
(60.2487 3.68421 8.66107e-23)
(60.2748 3.67374 0)
(60.3024 3.66438 -4.61986e-23)
(60.3319 3.65648 3.84396e-19)
(60.3632 3.65025 -3.91183e-19)
(60.3963 3.64591 -3.97861e-19)
(60.4313 3.64369 4.5317e-22)
(60.468 3.64384 4.12346e-19)
(60.5064 3.64661 -4.18682e-19)
(60.5463 3.65226 4.26409e-19)
(60.5877 3.66106 0)
(60.6303 3.67328 0)
(60.674 3.68917 -4.46695e-19)
(60.7186 3.70905 4.53676e-19)
(60.7638 3.73317 0)
(60.8093 3.76174 -4.63392e-19)
(60.8548 3.79507 4.67313e-19)
(60.8999 3.83369 -4.62503e-19)
(60.9442 3.87778 4.58454e-19)
(60.9872 3.92745 1.10497e-22)
(61.0286 3.98288 0)
(61.0675 4.04368 4.39683e-19)
(61.1037 4.10885 -4.41253e-19)
(61.1367 4.18075 0)
(61.1663 4.2579 4.40704e-19)
(61.1919 4.34016 -4.37545e-19)
(61.2129 4.42731 -2.12167e-22)
(61.229 4.51891 0)
(60.0723 3.63398 -5.99311e-19)
(60.1004 3.61966 3.6787e-19)
(60.1309 3.60574 4.7047e-23)
(60.1632 3.59298 0)
(60.1977 3.58183 -3.98611e-19)
(60.2343 3.57253 4.11342e-22)
(60.2731 3.56533 4.12237e-19)
(60.314 3.56048 -4.18888e-19)
(60.357 3.55828 4.26134e-19)
(60.4019 3.55901 1.05665e-22)
(60.4487 3.56297 -1.0726e-22)
(60.4971 3.57047 4.45817e-19)
(60.5471 3.58181 -4.53244e-19)
(60.5983 3.59729 0)
(60.6506 3.61725 -1.13743e-22)
(60.7036 3.64198 0)
(60.757 3.67173 -1.16071e-22)
(60.8104 3.70681 -1.16979e-22)
(60.8633 3.7478 0)
(60.9152 3.79487 1.54434e-25)
(60.9658 3.84813 -1.76244e-25)
(61.0145 3.9077 1.12121e-22)
(61.0606 3.97361 -2.21166e-22)
(61.1035 4.0456 -2.17582e-22)
(61.1425 4.12217 -4.45041e-19)
(61.1774 4.20589 7.61321e-22)
(61.2078 4.29503 8.90339e-19)
(61.233 4.38935 -4.41456e-19)
(61.2526 4.48835 4.36959e-19)
(59.9015 3.5666 3.81109e-23)
(59.934 3.54857 0)
(59.9692 3.53084 -4.87877e-23)
(60.0066 3.51433 -4.07934e-19)
(60.0464 3.49957 4.13681e-19)
(60.0887 3.48688 4.19444e-19)
(60.1336 3.4765 -4.26707e-19)
(60.181 3.46873 0)
(60.2307 3.4639 -5.37334e-23)
(60.2827 3.46235 -1.08977e-22)
(60.3369 3.46442 0)
(60.393 3.47046 2.2443e-22)
(60.451 3.4808 -1.138e-22)
(60.5104 3.49581 -4.7232e-19)
(60.571 3.51585 8.07477e-22)
(60.6325 3.54126 4.83387e-19)
(60.6944 3.57231 1.19037e-22)
(60.7564 3.60935 0)
(60.8178 3.653 0)
(60.8781 3.70342 -4.80162e-19)
(60.9367 3.76072 4.76002e-19)
(60.9931 3.82497 -1.14965e-22)
(61.0466 3.89616 2.27068e-25)
(61.0967 3.97424 2.23289e-22)
(61.1424 4.05895 4.48152e-19)