/*--------------------------------*- C++ -*----------------------------------*\
  =========                 |
  \\      /  F ield         | OpenFOAM: The Open Source CFD Toolbox
   \\    /   O peration     | Website:  https://openfoam.org
    \\  /    A nd           | Version:  7
     \\/     M anipulation  |
\*---------------------------------------------------------------------------*/
FoamFile
{
    version     2.0;
    format      ascii;
    class       surfaceScalarField;
    location    "0";
    object      phi;
}
// * * * * * * * * * * * * * * * * * * * * * * * * * * * * * * * * * * * * * //

dimensions      [0 3 -1 0 0 0 0];

internalField   nonuniform List<scalar> 
152148
(
-0.000351824
-0.0821349
0.0783232
-0.000331897
-0.0783389
0.0782978
-0.000338339
-0.000346498
0.0746873
-0.00031325
-0.0747044
0.0746641
-0.000319303
0.0746499
-0.000326989
0.074625
-0.000334857
-0.000342911
0.0712199
-0.000295138
-0.0712338
0.0711967
-0.000300845
0.0711838
-0.0003081
0.071159
-0.000315529
0.071145
-0.000323131
-0.000330915
0.0678985
-0.000278069
-0.0679139
0.0678765
-0.000283419
0.0678641
-0.000290246
0.0678407
-0.000297231
0.0678273
-0.000304386
0.0678025
-0.000311709
0.0677881
-0.000319208
-0.000326882
0.0647295
-0.000261442
-0.064742
0.0647074
-0.000266477
0.0646961
-0.000272915
0.0646727
-0.000279506
0.0646602
-0.000286252
0.0646357
-0.000293159
0.0646218
-0.000300228
0.0645964
-0.000307464
-0.000314869
0.0616933
-0.000245819
-0.0617071
0.0616731
-0.00025052
0.0616619
-0.00025656
0.0616403
-0.000262745
0.0616282
-0.000269077
0.0616053
-0.000275561
0.0615922
-0.000282197
0.0615683
-0.000288994
0.0615539
-0.000295949
0.0615291
-0.000303071
-0.00031036
0.0587983
-0.000230582
-0.0588101
0.0587785
-0.000234988
0.0587679
-0.00024067
0.0587468
-0.00024649
0.0587351
-0.000252448
0.058713
-0.000258547
0.0587002
-0.00026479
0.0586771
-0.00027118
0.0586632
-0.00027772
0.0586394
-0.000284415
0.0586244
-0.000291269
-0.000298281
0.0560282
-0.000216212
-0.0560409
0.05601
-0.000220304
0.0559993
-0.00022562
0.0559799
-0.000231063
0.0559685
-0.000236639
0.0559479
-0.000242347
0.0559356
-0.000248191
0.0559139
-0.000254177
0.0559006
-0.000260304
0.055878
-0.000266578
0.0558636
-0.000273001
0.0558402
-0.000279576
-0.000286308
0.0533881
-0.000202131
-0.0533993
0.0533703
-0.000205948
0.05336
-0.000210935
0.0533411
-0.000216043
0.0533299
-0.000221273
0.0533099
-0.000226628
0.0532979
-0.000232109
0.053277
-0.000237722
0.053264
-0.000243466
0.0532423
-0.000249349
0.0532283
-0.00025537
0.0532058
-0.000261534
0.0531907
-0.000267845
-0.000274304
0.0508637
-0.000188793
-0.0508757
0.0508473
-0.000192314
0.0508369
-0.000196962
0.0508193
-0.000201721
0.0508084
-0.000206597
0.0507896
-0.000211589
0.0507779
-0.000216705
0.0507582
-0.000221942
0.0507456
-0.000227308
0.050725
-0.000232802
0.0507115
-0.000238429
0.0506901
-0.00024419
0.0506755
-0.000250091
0.0506533
-0.000256132
-0.00026232
0.0484587
-0.000175635
-0.0484693
0.0484422
-0.000178905
0.0484323
-0.000183251
0.0484149
-0.000187706
0.0484042
-0.000192265
0.0483858
-0.000196936
0.0483743
-0.000201717
0.0483552
-0.000206616
0.0483428
-0.00021163
0.0483229
-0.000216767
0.0483096
-0.000222025
0.048289
-0.000227411
0.0482748
-0.000232926
0.0482536
-0.000238574
0.0482383
-0.000244357
-0.00025028
0.0461592
-0.000163143
-0.0461706
0.0461438
-0.000166139
0.0461339
-0.000170173
0.0461176
-0.000174306
0.0461071
-0.00017854
0.0460898
-0.000182879
0.0460785
-0.000187324
0.0460604
-0.000191878
0.0460483
-0.000196544
0.0460294
-0.000201324
0.0460165
-0.000206222
0.0459968
-0.000211239
0.045983
-0.000216378
0.0459627
-0.000221644
0.0459479
-0.000227038
0.0459269
-0.000232563
-0.000238224
0.0439678
-0.000150823
-0.043978
0.0439526
-0.000153584
0.043943
-0.000157339
0.043927
-0.00016119
0.0439166
-0.000165132
0.0438998
-0.000169174
0.0438887
-0.000173311
0.0438712
-0.000177552
0.0438593
-0.000181895
0.0438411
-0.000186346
0.0438284
-0.000190905
0.0438095
-0.000195577
0.043796
-0.000200362
0.0437765
-0.000205267
0.0437621
-0.000210291
0.0437419
-0.000215441
0.0437265
-0.000220717
-0.000226123
0.0418735
-0.000139111
-0.0418843
0.0418595
-0.000141614
0.0418498
-0.000145078
0.0418348
-0.000148629
0.0418246
-0.00015227
0.0418088
-0.000156003
0.0417979
-0.000159829
0.0417813
-0.000163752
0.0417697
-0.000167773
0.0417524
-0.000171896
0.04174
-0.000176122
0.041722
-0.000180455
0.0417088
-0.000184897
0.0416901
-0.000189451
0.0416761
-0.000194119
0.0416568
-0.000198905
0.0416419
-0.00020381
0.0416219
-0.00020884
-0.000213996
0.0398782
-0.00012753
-0.0398881
0.0398644
-0.000129814
0.039855
-0.00013302
0.0398403
-0.000136312
0.0398302
-0.000139682
0.0398148
-0.00014314
0.0398041
-0.000146683
0.039788
-0.000150317
0.0397766
-0.000154041
0.0397599
-0.000157861
0.0397478
-0.000161776
0.0397304
-0.000165793
0.0397175
-0.00016991
0.0396996
-0.000174133
0.0396859
-0.000178463
0.0396674
-0.000182905
0.0396528
-0.00018746
0.0396338
-0.000192141
-0.000196943
0.0379723
-0.000116488
-0.0379826
0.0379593
-0.000118532
0.0379499
-0.000121469
0.0379361
-0.000124483
0.0379262
-0.000127575
0.0379116
-0.000130749
0.0379011
-0.000134005
0.0378858
-0.000137346
0.0378747
-0.000140775
0.0378587
-0.000144295
0.0378468
-0.000147906
0.0378302
-0.000151612
0.0378177
-0.000155414
0.0378005
-0.000159317
0.0377872
-0.000163323
0.0377695
-0.000167442
0.0377548
-0.00017167
0.0377368
-0.000176017
0.0377208
-0.000180478
-0.000185069
0.0361565
-0.000105548
-0.036166
0.0361437
-0.000107391
0.0361344
-0.000110091
0.036121
-0.000112866
0.0361111
-0.000115711
0.036097
-0.000118632
0.0360866
-0.000121628
0.0360718
-0.000124706
0.0360608
-0.000127863
0.0360454
-0.000131105
0.0360338
-0.000134431
0.0360179
-0.000137848
0.0360056
-0.000141355
0.0359892
-0.000144965
0.0359756
-0.000148673
0.0359588
-0.000152489
0.0359441
-0.000156405
0.0359271
-0.000160442
0.0359109
-0.000164585
0.0358936
-0.000168851
-0.000173227
0.0344225
-9.51103e-05
-0.0344324
0.0344105
-9.67289e-05
0.0344012
-9.91801e-05
0.0343885
-0.000101699
0.0343788
-0.000104286
0.0343654
-0.000106947
0.0343552
-0.00010968
0.0343411
-0.000112489
0.0343304
-0.000115375
0.0343157
-0.000118342
0.0343043
-0.000121391
0.0342892
-0.000124534
0.0342766
-0.000127763
0.0342611
-0.000131091
0.0342474
-0.000134509
0.0342317
-0.000138036
0.0342166
-0.00014166
0.0342006
-0.000145395
0.0341845
-0.000149229
0.0341683
-0.000153175
-0.000157226
0.0327706
-8.47519e-05
-0.0327798
0.0327588
-8.61868e-05
0.0327497
-8.84212e-05
0.0327373
-9.07227e-05
0.0327276
-9.3084e-05
0.0327146
-9.55145e-05
0.0327046
-9.80094e-05
0.032691
-0.000100578
0.0326804
-0.000103216
0.0326664
-0.000105939
0.0326547
-0.000108738
0.0326403
-0.000111626
0.0326276
-0.000114594
0.032613
-0.000117661
0.032599
-0.000120814
0.0325842
-0.000124067
0.0325692
-0.00012741
0.0325542
-0.000130853
0.0325385
-0.000134392
0.0325232
-0.000138035
0.0325069
-0.00014178
-0.000145635
0.0311935
-7.48779e-05
-0.0312031
0.0311825
-7.61043e-05
0.0311733
-7.81089e-05
0.0311616
-8.01727e-05
0.0311522
-8.22976e-05
0.0311398
-8.44872e-05
0.0311299
-8.67417e-05
0.0311171
-8.90718e-05
0.0311062
-9.14721e-05
0.031093
-9.39519e-05
0.0310812
-9.65045e-05
0.0310677
-9.91464e-05
0.0310547
-0.000101866
0.031041
-0.000104677
0.031027
-0.000107568
0.0310131
-0.000110552
0.0309985
-0.00011362
0.0309844
-0.000116784
0.0309692
-0.00012004
0.0309547
-0.000123397
0.030939
-0.000126855
-0.000130421
0.0296914
-6.50548e-05
-0.0297003
0.0296805
-6.61155e-05
0.0296715
-6.7923e-05
0.0296601
-6.97905e-05
0.0296508
-7.17106e-05
0.0296389
-7.36998e-05
0.0296287
-7.57475e-05
0.0296164
-7.78675e-05
0.0296054
-8.00495e-05
0.0295929
-8.2313e-05
0.0295807
-8.46437e-05
0.029568
-8.70576e-05
0.029555
-8.95417e-05
0.0295421
-9.21091e-05
0.0295285
-9.47524e-05
0.0295154
-9.74811e-05
0.0295012
-0.000100292
0.0294878
-0.000103195
0.0294732
-0.000106189
0.0294594
-0.000109279
0.0294443
-0.000112469
0.02943
-0.000115754
-0.000119148
0.0282576
-5.57134e-05
-0.0282668
0.0282474
-5.65798e-05
0.0282384
-5.81757e-05
0.0282278
-5.98312e-05
0.0282181
-6.15426e-05
0.028207
-6.33178e-05
0.0281966
-6.5151e-05
0.0281852
-6.70569e-05
0.0281738
-6.90252e-05
0.0281621
-7.10676e-05
0.02815
-7.31744e-05
0.0281381
-7.53562e-05
0.0281254
-7.76069e-05
0.0281133
-7.99342e-05
0.0281001
-8.23366e-05
0.0280877
-8.48206e-05
0.0280741
-8.73886e-05
0.0280613
-9.00428e-05
0.0280472
-9.27879e-05
0.028034
-9.5619e-05
0.0280198
-9.85509e-05
0.0280059
-0.000101578
-0.000104715
0.0268922
-4.63969e-05
-0.0269008
0.0268822
-4.71241e-05
0.026873
-4.85516e-05
0.0268627
-5.0038e-05
0.0268529
-5.15704e-05
0.0268423
-5.31685e-05
0.0268316
-5.48178e-05
0.0268208
-5.65321e-05
0.0268094
-5.83016e-05
0.0267984
-6.01361e-05
0.0267865
-6.20313e-05
0.0267753
-6.39925e-05
0.026763
-6.60216e-05
0.0267515
-6.81211e-05
0.0267388
-7.02977e-05
0.026727
-7.25492e-05
0.0267139
-7.48852e-05
0.0267017
-7.72984e-05
0.0266885
-7.98055e-05
0.0266756
-8.24016e-05
0.0266622
-8.50986e-05
0.0266487
-8.78892e-05
0.0266352
-9.07905e-05
-9.38001e-05
0.0255887
-3.75847e-05
-0.025598
0.0255795
-3.81398e-05
0.0255702
-3.93784e-05
0.0255606
-4.06754e-05
0.0255505
-4.20213e-05
0.0255407
-4.34216e-05
0.0255301
-4.48742e-05
0.0255201
-4.63796e-05
0.025509
-4.79437e-05
0.0254987
-4.95626e-05
0.0254873
-5.12471e-05
0.0254766
-5.29905e-05
0.0254649
-5.48083e-05
0.0254538
-5.66913e-05
0.0254418
-5.8655e-05
0.0254303
-6.06894e-05
0.0254181
-6.28118e-05
0.0254061
-6.50182e-05
0.0253936
-6.73177e-05
0.0253811
-6.97056e-05
0.0253684
-7.21934e-05
0.0253553
-7.47853e-05
0.0253424
-7.7482e-05
-8.02913e-05
0.0243475
-2.87475e-05
-0.0243564
0.0243387
-2.91583e-05
0.024329
-3.0231e-05
0.0243199
-3.13489e-05
0.0243101
-3.25112e-05
0.0243007
-3.37268e-05
0.0242906
-3.49921e-05
0.0242809
-3.63195e-05
0.0242705
-3.77005e-05
0.0242604
-3.9151e-05
0.0242497
-4.06593e-05
0.0242393
-4.22449e-05
0.0242282
-4.38927e-05
0.0242174
-4.56233e-05
0.024206
-4.74219e-05
0.0241948
-4.93049e-05
0.024183
-5.12641e-05
0.0241714
-5.3303e-05
0.0241595
-5.54286e-05
0.0241473
-5.76409e-05
0.0241351
-5.99501e-05
0.0241226
-6.23469e-05
0.0241102
-6.48547e-05
-6.74654e-05
0.0231641
-2.04385e-05
-0.0231732
0.0231557
-2.06843e-05
0.0231465
-2.15797e-05
0.0231378
-2.25189e-05
0.0231281
-2.35097e-05
0.0231192
-2.45503e-05
0.0231092
-2.56447e-05
0.0231
-2.67948e-05
0.0230896
-2.80031e-05
0.0230801
-2.92721e-05
0.0230694
-3.06037e-05
0.0230596
-3.19992e-05
0.0230487
-3.34641e-05
0.0230384
-3.49937e-05
0.0230274
-3.65988e-05
0.0230167
-3.82775e-05
0.0230057
-4.00406e-05
0.0229945
-4.18893e-05
0.0229833
-4.38283e-05
0.0229716
-4.58614e-05
0.0229602
-4.79935e-05
0.0229481
-5.02379e-05
0.0229363
-5.25855e-05
0.0229237
-5.50497e-05
-5.7628e-05
0.0220377
-1.2089e-05
-0.022046
0.0220293
-1.22377e-05
0.0220203
-1.30072e-05
0.0220118
-1.38243e-05
0.0220023
-1.46818e-05
0.0219936
-1.55879e-05
0.0219838
-1.6541e-05
0.0219749
-1.75447e-05
0.0219648
-1.86021e-05
0.0219556
-1.97123e-05
0.0219454
-2.08843e-05
0.0219359
-2.2117e-05
0.0219256
-2.34174e-05
0.0219157
-2.47903e-05
0.0219052
-2.62391e-05
0.0218949
-2.77668e-05
0.0218842
-2.93765e-05
0.0218735
-3.10739e-05
0.0218627
-3.28624e-05
0.0218515
-3.47512e-05
0.0218405
-3.67372e-05
0.0218289
-3.88237e-05
0.0218176
-4.10195e-05
0.0218056
-4.33293e-05
-4.57526e-05
0.0209627
-4.25599e-06
-0.0209713
0.0209549
-4.26158e-06
0.0209461
-4.87657e-06
0.0209381
-5.52999e-06
0.020929
-6.23083e-06
0.0209207
-6.97233e-06
0.0209113
-7.76708e-06
0.0209028
-8.60628e-06
0.0208933
-9.50628e-06
0.0208844
-1.04598e-05
0.0208747
-1.14805e-05
0.0208655
-1.25604e-05
0.0208556
-1.37152e-05
0.020846
-1.49358e-05
0.020836
-1.62367e-05
0.020826
-1.76177e-05
0.0208158
-1.9086e-05
0.0208055
-2.06463e-05
0.0207951
-2.22978e-05
0.0207844
-2.40478e-05
0.0207739
-2.58975e-05
0.0207628
-2.78633e-05
0.020752
-2.99317e-05
0.0207407
-3.21198e-05
-3.44231e-05
0.0199395
3.60844e-06
-0.0199474
0.019932
3.72074e-06
0.0199236
3.24072e-06
0.0199157
2.71974e-06
0.0199071
2.15361e-06
0.019899
1.54185e-06
0.0198903
8.78652e-07
0.0198819
1.59338e-07
0.0198728
-6.16377e-07
0.0198641
-1.45199e-06
0.0198549
-2.35006e-06
0.0198459
-3.32048e-06
0.0198365
-4.35755e-06
0.0198272
-5.47778e-06
0.0198176
-6.67148e-06
0.0198079
-7.95067e-06
0.0197981
-9.30926e-06
0.0197882
-1.07594e-05
0.0197783
-1.22993e-05
0.0197681
-1.39423e-05
0.0197579
-1.56814e-05
0.0197474
-1.75239e-05
0.0197371
-1.94768e-05
0.0197263
-2.15477e-05
0.0197158
-2.37324e-05
-2.60448e-05
0.0189648
1.10693e-05
-0.0189725
0.0189575
1.12916e-05
0.0189494
1.0937e-05
0.0189418
1.05382e-05
0.0189336
1.00937e-05
0.0189257
9.59775e-06
0.0189172
9.05036e-06
0.0189091
8.44918e-06
0.0189004
7.79019e-06
0.0188921
7.06754e-06
0.0188831
6.28088e-06
0.0188745
5.4293e-06
0.0188653
4.50505e-06
0.0188564
3.51157e-06
0.0188472
2.43919e-06
0.018838
1.2829e-06
0.0188286
3.91453e-08
0.0188192
-1.29961e-06
0.0188097
-2.7306e-06
0.0188
-4.26283e-06
0.0187904
-5.89729e-06
0.0187805
-7.65106e-06
0.0187706
-9.50912e-06
0.0187605
-1.14897e-05
0.0187505
-1.35894e-05
-1.58195e-05
0.0180365
1.83393e-05
-0.0180439
0.0180294
1.86556e-05
0.0180215
1.84105e-05
0.0180142
1.81237e-05
0.0180062
1.779e-05
0.0179986
1.74078e-05
0.0179904
1.69726e-05
0.0179826
1.64771e-05
0.0179742
1.59243e-05
0.0179662
1.53071e-05
0.0179576
1.46264e-05
0.0179493
1.38689e-05
0.0179407
1.30439e-05
0.0179322
1.21325e-05
0.0179233
1.11451e-05
0.0179145
1.00701e-05
0.0179055
8.91239e-06
0.0178966
7.65968e-06
0.0178875
6.31305e-06
0.0178784
4.85884e-06
0.0178691
3.30467e-06
0.0178598
1.64266e-06
0.0178504
-1.34719e-07
0.0178409
-2.03465e-06
0.0178314
-4.05098e-06
-6.19922e-06
0.0171523
2.52716e-05
-0.0171595
0.0171454
2.567e-05
0.0171379
2.55222e-05
0.0171307
2.53273e-05
0.0171231
2.50857e-05
0.0171157
2.47927e-05
0.0171078
2.44464e-05
0.0171003
2.40495e-05
0.0170922
2.35908e-05
0.0170845
2.30715e-05
0.0170762
2.24829e-05
0.0170684
2.18314e-05
0.0170599
2.10999e-05
0.0170519
2.02972e-05
0.0170434
1.94085e-05
0.0170352
1.84311e-05
0.0170266
1.73595e-05
0.0170181
1.61885e-05
0.0170094
1.49197e-05
0.0170008
1.3545e-05
0.0169921
1.20623e-05
0.0169832
1.04564e-05
0.0169744
8.74223e-06
0.0169655
6.90186e-06
0.0169565
4.93644e-06
2.8381e-06
0.0163102
3.20995e-05
-0.0163172
0.0163035
3.25807e-05
0.0162963
3.25285e-05
0.0162894
3.24318e-05
0.016282
3.22861e-05
0.016275
3.20879e-05
0.0162674
3.18345e-05
0.0162602
3.15159e-05
0.0162525
3.11374e-05
0.0162451
3.06906e-05
0.0162373
3.01766e-05
0.0162297
2.95812e-05
0.0162218
2.89143e-05
0.016214
2.8157e-05
0.0162059
2.73183e-05
0.0161981
2.63891e-05
0.0161899
2.53713e-05
0.0161819
2.42542e-05
0.0161736
2.30366e-05
0.0161655
2.17075e-05
0.0161571
2.02733e-05
0.0161489
1.8727e-05
0.0161405
1.70584e-05
0.0161321
1.52636e-05
0.0161237
1.33485e-05
0.0161153
1.12972e-05
9.10742e-06
0.0155085
3.8542e-05
-0.0155153
0.015502
3.90912e-05
0.0154951
3.91188e-05
0.0154884
3.91002e-05
0.0154813
3.90298e-05
0.0154746
3.89075e-05
0.0154672
3.87265e-05
0.0154603
3.84907e-05
0.0154529
3.81873e-05
0.0154459
3.78156e-05
0.0154383
3.73701e-05
0.0154312
3.6853e-05
0.0154235
3.62512e-05
0.0154162
3.55699e-05
0.0154085
3.47989e-05
0.0154011
3.39312e-05
0.0153934
3.29651e-05
0.0153858
3.18945e-05
0.015378
3.07214e-05
0.0153704
2.94384e-05
0.0153626
2.80409e-05
0.0153548
2.65168e-05
0.0153469
2.488e-05
0.0153391
2.31133e-05
0.0153312
2.12153e-05
0.0153233
1.91822e-05
1.70219e-05
0.0147452
4.49095e-05
-0.0147517
0.014739
4.55165e-05
0.0147323
4.56164e-05
0.0147259
4.56661e-05
0.0147191
4.56642e-05
0.0147126
4.56044e-05
0.0147057
4.54864e-05
0.014699
4.5298e-05
0.014692
4.50463e-05
0.0146852
4.47221e-05
0.0146781
4.4325e-05
0.0146712
4.38418e-05
0.014664
4.32815e-05
0.014657
4.26265e-05
0.0146497
4.18828e-05
0.0146427
4.10443e-05
0.0146353
4.01096e-05
0.0146282
3.90694e-05
0.0146208
3.79213e-05
0.0146137
3.66556e-05
0.0146063
3.52792e-05
0.0145991
3.37846e-05
0.0145917
3.21612e-05
0.0145844
3.04073e-05
0.0145771
2.85299e-05
0.0145698
2.65123e-05
2.43515e-05
0.0140186
5.08144e-05
-0.0140249
0.0140126
5.14782e-05
0.0140062
5.16416e-05
0.014
5.1756e-05
0.0139935
5.18124e-05
0.0139873
5.18144e-05
0.0139806
5.17506e-05
0.0139743
5.16298e-05
0.0139675
5.14328e-05
0.0139611
5.1164e-05
0.0139543
5.08132e-05
0.0139478
5.03869e-05
0.0139409
4.98664e-05
0.0139343
4.92604e-05
0.0139274
4.85568e-05
0.0139208
4.7749e-05
0.0139139
4.68354e-05
0.0139072
4.5812e-05
0.0139003
4.46796e-05
0.0138936
4.34317e-05
0.0138867
4.20617e-05
0.01388
4.05616e-05
0.0138731
3.89438e-05
0.0138664
3.71926e-05
0.0138596
3.53034e-05
0.0138528
3.32776e-05
3.11219e-05
0.0133271
5.67666e-05
-0.0133331
0.0133213
5.74644e-05
0.0133152
5.76791e-05
0.0133092
5.78388e-05
0.013303
5.79427e-05
0.013297
5.79824e-05
0.0132907
5.79581e-05
0.0132847
5.78564e-05
0.0132783
5.76846e-05
0.0132721
5.74343e-05
0.0132657
5.71028e-05
0.0132595
5.66784e-05
0.013253
5.61698e-05
0.0132468
5.55606e-05
0.0132402
5.48541e-05
0.013234
5.40489e-05
0.0132275
5.31393e-05
0.0132212
5.21179e-05
0.0132148
5.09809e-05
0.0132085
4.9722e-05
0.0132021
4.83463e-05
0.0131958
4.6848e-05
0.0131895
4.52133e-05
0.0131832
4.3446e-05
0.0131769
4.15517e-05
0.0131707
3.95142e-05
0.0131645
3.73292e-05
3.50041e-05
0.0126688
6.22008e-05
-0.0126747
0.0126633
6.29628e-05
0.0126574
6.32339e-05
0.0126518
6.34515e-05
0.0126458
6.35991e-05
0.0126401
6.36841e-05
0.0126341
6.36935e-05
0.0126283
6.36351e-05
0.0126222
6.34927e-05
0.0126164
6.32665e-05
0.0126102
6.29528e-05
0.0126045
6.25537e-05
0.0125983
6.20537e-05
0.0125925
6.14597e-05
0.0125863
6.07633e-05
0.0125805
5.99549e-05
0.0125744
5.90348e-05
0.0125686
5.8001e-05
0.0125625
5.68515e-05
0.0125567
5.55824e-05
0.0125508
5.41838e-05
0.012545
5.26524e-05
0.0125391
5.09993e-05
0.0125334
4.92095e-05
0.0125276
4.72756e-05
0.0125219
4.52061e-05
0.0125162
4.30054e-05
4.06551e-05
0.0120429
6.78188e-05
-0.0120482
0.0120375
6.85623e-05
0.0120318
6.884e-05
0.0120264
6.90523e-05
0.0120207
6.92049e-05
0.0120152
6.92856e-05
0.0120094
6.9298e-05
0.0120039
6.92263e-05
0.0119981
6.90801e-05
0.0119926
6.88501e-05
0.0119868
6.85311e-05
0.0119813
6.81139e-05
0.0119755
6.76059e-05
0.01197
6.69922e-05
0.0119642
6.62718e-05
0.0119588
6.54484e-05
0.0119531
6.45119e-05
0.0119477
6.34566e-05
0.0119421
6.22779e-05
0.0119367
6.09729e-05
0.0119312
5.95454e-05
0.011926
5.79905e-05
0.0119206
5.62931e-05
0.0119153
5.44619e-05
0.01191
5.25022e-05
0.0119049
5.03969e-05
0.0118997
4.81421e-05
4.57512e-05
0.0114468
7.29271e-05
-0.0114521
0.0114416
7.36662e-05
0.0114362
7.39538e-05
0.011431
7.41826e-05
0.0114255
7.43465e-05
0.0114204
7.44413e-05
0.0114148
7.44604e-05
0.0114097
7.44068e-05
0.0114042
7.42645e-05
0.011399
7.40327e-05
0.0113935
7.37088e-05
0.0113884
7.3294e-05
0.011383
7.27696e-05
0.0113778
7.2145e-05
0.0113725
7.14113e-05
0.0113674
7.05576e-05
0.0113621
6.95847e-05
0.0113571
6.84942e-05
0.011352
6.72802e-05
0.0113471
6.59416e-05
0.011342
6.44661e-05
0.0113371
6.28559e-05
0.0113322
6.11205e-05
0.0113275
5.92458e-05
0.0113227
5.72229e-05
0.011318
5.50673e-05
0.0113133
5.27807e-05
5.03447e-05
0.0108793
7.78383e-05
-0.0108844
0.0108745
7.8592e-05
0.0108694
7.89079e-05
0.0108646
7.91446e-05
0.0108594
7.93187e-05
0.0108545
7.9411e-05
0.0108494
7.94294e-05
0.0108444
7.9356e-05
0.0108393
7.92006e-05
0.0108344
7.89547e-05
0.0108293
7.86094e-05
0.0108245
7.81592e-05
0.0108194
7.76099e-05
0.0108147
7.69476e-05
0.0108097
7.61674e-05
0.010805
7.52791e-05
0.0108001
7.42684e-05
0.0107955
7.31314e-05
0.0107907
7.18639e-05
0.0107862
7.04662e-05
0.0107816
6.89408e-05
0.0107772
6.72844e-05
0.0107728
6.54802e-05
0.0107685
6.35435e-05
0.0107642
6.14783e-05
0.01076
5.92666e-05
0.0107558
5.69059e-05
5.44164e-05
0.0103396
8.20955e-05
-0.0103449
0.0103352
8.29452e-05
0.0103303
8.33208e-05
0.0103257
8.36233e-05
0.0103208
8.38314e-05
0.0103163
8.39595e-05
0.0103114
8.39902e-05
0.0103068
8.3937e-05
0.010302
8.37773e-05
0.0102974
8.35174e-05
0.0102926
8.31524e-05
0.0102881
8.26861e-05
0.0102834
8.20964e-05
0.010279
8.13977e-05
0.0102744
8.05813e-05
0.0102701
7.96362e-05
0.0102656
7.85633e-05
0.0102614
7.7369e-05
0.010257
7.60434e-05
0.0102529
7.45883e-05
0.0102488
7.29914e-05
0.0102448
7.1259e-05
0.0102408
6.94003e-05
0.0102369
6.74007e-05
0.0102331
6.52518e-05
0.0102293
6.29761e-05
0.0102256
6.05724e-05
5.80215e-05
0.00982735
8.68111e-05
-0.00983205
0.00982281
8.75759e-05
0.0098181
8.79103e-05
0.00981364
8.81712e-05
0.00980898
8.8352e-05
0.00980457
8.84461e-05
0.00979998
8.84474e-05
0.0097956
8.83492e-05
0.00979105
8.81518e-05
0.00978677
8.78547e-05
0.00978232
8.74415e-05
0.00977809
8.69143e-05
0.00977374
8.62767e-05
0.00976964
8.55175e-05
0.00976539
8.46282e-05
0.0097614
8.36251e-05
0.00975732
8.24915e-05
0.00975347
8.12241e-05
0.00974955
7.98218e-05
0.00974582
7.82872e-05
0.00974207
7.66217e-05
0.00973853
7.48231e-05
0.00973495
7.28747e-05
0.00973152
7.07978e-05
0.00972813
6.85951e-05
0.00972487
6.62467e-05
0.0097216
6.37539e-05
0.00971844
6.11433e-05
5.84112e-05
0.00933942
9.10075e-05
-0.00934392
0.0093352
9.18202e-05
0.00933074
9.21614e-05
0.00932651
9.24244e-05
0.00932209
9.25835e-05
0.0093179
9.26552e-05
0.00931354
9.26201e-05
0.00930943
9.2491e-05
0.00930519
9.22461e-05
0.00930115
9.18902e-05
0.00929699
9.14224e-05
0.00929309
9.08427e-05
0.00928906
9.01306e-05
0.00928526
8.93021e-05
0.00928141
8.83508e-05
0.00927776
8.72632e-05
0.00927404
8.6042e-05
0.00927054
8.46977e-05
0.00926702
8.32167e-05
0.0092637
8.16032e-05
0.00926036
7.98463e-05
0.00925718
7.79554e-05
0.00925405
7.59401e-05
0.00925106
7.37843e-05
0.00924808
7.14818e-05
0.00924522
6.90625e-05
0.00924243
6.65213e-05
0.00923973
6.38373e-05
6.1018e-05
0.00887595
9.55593e-05
-0.00887992
0.00887167
9.62328e-05
0.00886744
9.64892e-05
0.00886329
9.66595e-05
0.00885913
9.67471e-05
0.0088551
9.67395e-05
0.00885104
9.66348e-05
0.00884712
9.64235e-05
0.00884314
9.61072e-05
0.00883938
9.56838e-05
0.00883555
9.51361e-05
0.00883189
9.44683e-05
0.00882822
9.3685e-05
0.00882475
9.27729e-05
0.00882121
9.17226e-05
0.00881789
9.0555e-05
0.00881457
8.92526e-05
0.00881143
8.78107e-05
0.00880828
8.62328e-05
0.00880532
8.45226e-05
0.00880238
8.26807e-05
0.00879963
8.07066e-05
0.00879688
7.85844e-05
0.00879427
7.63415e-05
0.00879173
7.39794e-05
0.00878931
7.1475e-05
0.0087869
6.88354e-05
0.0087846
6.60929e-05
6.32371e-05
0.00843436
9.95338e-05
-0.00843831
0.00843043
0.000100176
0.00842643
0.000100396
0.00842258
0.00010053
0.00841866
0.000100569
0.0084149
0.000100509
0.00841108
0.000100344
0.00840745
0.000100074
0.00840378
9.96856e-05
0.00840027
9.91778e-05
0.00839674
9.85544e-05
0.00839342
9.78108e-05
0.00839005
9.69271e-05
0.00838687
9.59219e-05
0.00838371
9.47899e-05
0.00838072
9.35152e-05
0.00837773
9.21028e-05
0.00837494
9.05667e-05
0.00837218
8.88909e-05
0.00836959
8.70817e-05
0.00836704
8.51321e-05
0.00836463
8.30529e-05
0.0083623
8.08557e-05
0.0083601
7.85215e-05
0.00835793
7.60484e-05
0.00835589
7.34728e-05
0.00835392
7.0783e-05
0.00835203
6.79573e-05
6.50092e-05
0.00801447
0.000103228
-0.00801828
0.00801082
0.000103843
0.00800709
0.000104047
0.00800349
0.000104141
0.00799983
0.000104138
0.00799633
0.000104023
0.00799279
0.000103798
0.00798941
0.000103454
0.007986
0.000102992
0.0079828
0.000102411
0.00797957
0.000101695
0.0079765
0.000100849
0.00797347
9.98798e-05
0.00797063
9.87729e-05
0.00796777
9.75201e-05
0.0079651
9.61463e-05
0.00796249
9.46346e-05
0.00796003
9.2979e-05
0.00795763
9.11894e-05
0.00795538
8.92705e-05
0.0079532
8.72222e-05
0.00795119
8.50467e-05
0.00794922
8.27293e-05
0.00794737
8.03037e-05
0.00794562
7.77687e-05
0.00794396
7.50973e-05
0.00794234
7.23037e-05
0.00794081
6.94093e-05
6.6391e-05
0.00761536
0.000106467
-0.00761928
0.007612
0.000107139
0.00760844
0.000107354
0.0076051
0.000107449
0.00760166
0.000107419
0.0075984
0.000107266
0.00759511
0.000106986
0.00759199
0.00010658
0.00758887
0.00010604
0.0075859
0.000105364
0.00758297
0.00010456
0.00758022
0.000103622
0.00757747
0.000102533
0.0075749
0.000101314
0.0075724
9.99631e-05
0.00757005
9.84623e-05
0.00756775
9.68207e-05
0.00756563
9.50574e-05
0.00756358
9.31537e-05
0.00756169
9.11181e-05
0.00755987
8.89493e-05
0.00755818
8.66582e-05
0.00755659
8.42593e-05
0.00755513
8.17315e-05
0.0075537
7.90769e-05
0.00755238
7.63242e-05
0.00755114
7.3449e-05
0.00754993
7.04444e-05
6.73306e-05
0.00723657
0.000109944
-0.00724016
0.0072332
0.0001105
0.00722977
0.00011064
0.00722655
0.000110665
0.00722329
0.000110568
0.00722022
0.000110343
0.00721715
0.000109985
0.00721424
0.00010949
0.00721136
0.000108857
0.00720866
0.000108089
0.00720599
0.00010717
0.00720348
0.00010611
0.00720105
0.000104918
0.00719879
0.000103576
0.00719657
0.000102082
0.00719452
0.000100465
0.00719258
9.87097e-05
0.00719077
9.68066e-05
0.00718905
9.47744e-05
0.00718748
9.26178e-05
0.00718601
9.03351e-05
0.00718468
8.79335e-05
0.00718342
8.54021e-05
0.00718227
8.27675e-05
0.00718121
8.00206e-05
0.00718021
7.71475e-05
0.00717926
7.41667e-05
0.00717838
7.10816e-05
6.79116e-05
0.00687622
0.000113189
-0.00687955
0.00687306
0.000113735
0.0068698
0.000113815
0.00686674
0.000113771
0.00686366
0.000113586
0.00686076
0.000113268
0.00685789
0.000112808
0.00685519
0.000112209
0.00685255
0.000111462
0.00685006
0.000110568
0.00684765
0.000109533
0.00684543
0.000108353
0.00684326
0.000107013
0.00684125
0.000105539
0.00683937
0.000103931
0.00683762
0.000102168
0.00683596
0.000100264
0.00683447
9.82429e-05
0.00683309
9.6081e-05
0.00683184
9.37889e-05
0.00683069
9.13723e-05
0.00682967
8.88373e-05
0.00682875
8.61905e-05
0.00682792
8.34286e-05
0.00682714
8.05589e-05
0.00682645
7.75904e-05
0.00682581
7.45485e-05
0.00682526
7.15232e-05
6.84717e-05
0.00653395
0.000116649
-0.00653699
0.00653077
0.000117003
0.00652767
0.000116949
0.00652471
0.000116774
0.00652181
0.00011647
0.00651908
0.00011603
0.00651641
0.000115446
0.0065139
0.000114718
0.00651148
0.000113842
0.00650923
0.00011282
0.00650708
0.00011164
0.00650507
0.000110312
0.0065032
0.00010885
0.00650148
0.000107232
0.00649985
0.000105461
0.00649839
0.00010357
0.00649707
0.000101541
0.00649586
9.9364e-05
0.00649477
9.70607e-05
0.00649382
9.46335e-05
0.00649298
9.20758e-05
0.00649227
8.94044e-05
0.00649164
8.66234e-05
0.00649111
8.37368e-05
0.00649064
8.07905e-05
0.00649028
7.78681e-05
0.00649006
7.49182e-05
0.00648985
7.17833e-05
6.86198e-05
0.00620812
0.000119715
-0.00621105
0.0062052
0.00011998
0.00620229
0.000119827
0.00619953
0.000119549
0.00619682
0.000119131
0.00619427
0.000118571
0.0061918
0.000117861
0.0061895
0.000117
0.0061873
0.000115983
0.00618526
0.000114811
0.00618335
0.000113493
0.00618162
0.000112024
0.00617999
0.000110392
0.00617852
0.000108629
0.00617721
0.000106734
0.00617603
0.000104682
0.00617496
0.000102495
0.00617405
0.000100185
0.00617325
9.77329e-05
0.00617257
9.51543e-05
0.00617202
9.24642e-05
0.00617159
8.96523e-05
0.00617125
8.67656e-05
0.00617106
8.39126e-05
0.00617101
8.1031e-05
0.00617098
7.7985e-05
0.00617091
7.4915e-05
0.00617101
7.1962e-05
0.0061712
6.88296e-05
6.53912e-05
0.00589841
0.000122406
-0.0059013
0.00589569
0.00012263
0.00589299
0.000122432
0.00589041
0.000122074
0.00588789
0.00012156
0.00588553
0.000120885
0.00588326
0.000120047
0.00588115
0.000119046
0.00587917
0.000117884
0.00587737
0.000116566
0.0058757
0.000115084
0.00587419
0.000113452
0.00587284
0.000111685
0.00587165
0.000109762
0.00587057
0.000107689
0.00586966
0.000105495
0.00586888
0.000103155
0.00586821
0.000100675
0.00586768
9.80795e-05
0.00586729
9.53686e-05
0.005867
9.25555e-05
0.00586688
8.97601e-05
0.00586696
8.69275e-05
0.00586709
8.39335e-05
0.0058672
8.09264e-05
0.00586748
7.80315e-05
0.00586783
7.49666e-05
0.00586804
7.16072e-05
0.00586823
6.83159e-05
6.52076e-05
0.00560423
0.000124829
-0.00560714
0.00560168
0.000125076
0.00559911
0.000124839
0.00559667
0.000124414
0.00559431
0.000123802
0.00559211
0.000123007
0.00559002
0.000122032
0.00558811
0.000120883
0.00558634
0.000119562
0.00558475
0.000118076
0.00558331
0.000116435
0.00558206
0.000114642
0.00558095
0.000112688
0.00558
0.000110599
0.0055792
0.000108366
0.00557853
0.000105981
0.00557798
0.000103471
0.00557759
0.000100842
0.00557732
9.81309e-05
0.0055772
9.54082e-05
0.00557731
9.2643e-05
0.0055775
8.97012e-05
0.00557774
8.67404e-05
0.00557817
8.38794e-05
0.0055787
8.08608e-05
0.00557909
7.75668e-05
0.00557945
7.43254e-05
0.00557998
7.12521e-05
0.00558057
6.7962e-05
6.44019e-05
0.00532505
0.000127448
-0.00532779
0.00532247
0.000127566
0.00531996
0.000127232
0.0053176
0.00012669
0.00531535
0.000125946
0.00531328
0.000125
0.00531135
0.000123862
0.00530962
0.00012254
0.00530805
0.000121041
0.00530667
0.000119377
0.00530546
0.000117547
0.00530443
0.000115565
0.00530356
0.000113434
0.00530285
0.000111144
0.00530227
0.000108709
0.00530186
0.000106147
0.00530157
0.0001035
0.00530147
0.000100854
0.00530157
9.81519e-05
0.00530175
9.52694e-05
0.005302
9.2375e-05
0.00530248
8.95508e-05
0.00530311
8.65654e-05
0.00530367
8.33226e-05
0.00530421
8.0126e-05
0.0053049
7.70736e-05
0.00530564
7.38194e-05
0.00530623
7.03069e-05
0.00530683
6.69851e-05
6.38749e-05
0.0050597
0.000130002
-0.00506229
0.0050572
0.000130107
0.00505471
0.000129657
0.00505241
0.000128971
0.00505025
0.000128045
0.00504829
0.000126907
0.00504651
0.000125565
0.00504495
0.000124035
0.00504357
0.000122327
0.0050424
0.000120453
0.00504141
0.000118419
0.0050406
0.000116232
0.00503994
0.000113892
0.00503946
0.0001114
0.00503912
0.000108797
0.005039
0.000106194
0.00503909
0.000103531
0.00503928
0.000100692
0.00503951
9.78298e-05
0.00504
9.5064e-05
0.0050406
9.20989e-05
0.0050412
8.88929e-05
0.00504186
8.57451e-05
0.0050427
8.27137e-05
0.0050436
7.94882e-05
0.00504435
7.60201e-05
0.00504511
7.27172e-05
0.00504604
6.96091e-05
0.00504697
6.62287e-05
6.26278e-05
0.0048078
0.000132849
-0.00481023
0.00480516
0.000132817
0.00480266
0.000132205
0.00480036
0.00013128
0.00479827
0.000130118
0.00479642
0.000128717
0.00479479
0.000127129
0.0047934
0.000125343
0.00479222
0.0001234
0.00479125
0.000121281
0.00479047
0.000119025
0.00478988
0.00011663
0.00478943
0.000114084
0.0047892
0.000111507
0.00478925
0.000108897
0.0047894
0.000106081
0.00478964
0.000103239
0.00479012
0.000100484
0.00479074
9.75413e-05
0.0047913
9.43375e-05
0.00479195
9.12039e-05
0.00479284
8.82044e-05
0.00479382
8.49922e-05
0.00479473
8.15671e-05