/*--------------------------------*- C++ -*----------------------------------*\
  =========                 |
  \\      /  F ield         | OpenFOAM: The Open Source CFD Toolbox
   \\    /   O peration     | Website:  https://openfoam.org
    \\  /    A nd           | Version:  7
     \\/     M anipulation  |
\*---------------------------------------------------------------------------*/
FoamFile
{
    version     2.0;
    format      ascii;
    class       volVectorField;
    location    "0";
    object      U;
}
// * * * * * * * * * * * * * * * * * * * * * * * * * * * * * * * * * * * * * //

dimensions      [0 1 -1 0 0 0 0];

internalField   nonuniform List<vector> 
76363
(
(0.925225 -0.10029 -2.47483e-20)
(0.926831 -0.0948369 -2.48045e-20)
(0.926555 -0.0943544 -2.47982e-20)
(0.926325 -0.0943072 2.43678e-27)
(0.928268 -0.0896453 2.48558e-20)
(0.927986 -0.0891854 -2.30437e-27)
(0.927759 -0.0891391 -2.48422e-20)
(0.927521 -0.0890923 -4.96715e-20)
(0.927279 -0.0890443 -2.48291e-20)
(0.929695 -0.0846809 2.18792e-27)
(0.929423 -0.0842422 -2.4899e-20)
(0.929192 -0.0841971 -3.47463e-25)
(0.928951 -0.0841514 2.48862e-20)
(0.928702 -0.0841048 0)
(0.928444 -0.0840576 0)
(0.93097 -0.0799134 0)
(0.930686 -0.0794953 4.10771e-27)
(0.930454 -0.0794523 2.05275e-27)
(0.930212 -0.0794087 1.24655e-20)
(0.929965 -0.0793644 1.24622e-20)
(0.929707 -0.0793195 1.24585e-20)
(0.929443 -0.0792737 1.78953e-25)
(0.92917 -0.0792272 -1.24511e-20)
(0.932198 -0.0753321 -1.94623e-27)
(0.931922 -0.0749343 1.24942e-20)
(0.931686 -0.0748941 1.24911e-20)
(0.93144 -0.0748535 1.24875e-20)
(0.931186 -0.0748122 1.24841e-20)
(0.930923 -0.0747703 0)
(0.930651 -0.0747275 0)
(0.930373 -0.074684 -1.92948e-27)
(0.930086 -0.0746397 0)
(0.933248 -0.0709339 -1.83253e-27)
(0.932965 -0.0705545 -1.25134e-20)
(0.932731 -0.070517 -2.50205e-20)
(0.932487 -0.0704793 -1.25069e-20)
(0.932236 -0.0704407 -1.81979e-27)
(0.931976 -0.0704018 -1.81878e-27)
(0.931708 -0.070362 -1.24959e-20)
(0.931431 -0.0703215 -1.24922e-20)
(0.931147 -0.0702802 1.2488e-20)
(0.930855 -0.0702381 2.49681e-20)
(0.930554 -0.0701951 2.49597e-20)
(0.934271 -0.0667129 -1.25359e-20)
(0.933996 -0.0663503 1.25323e-20)
(0.933758 -0.066315 1.25291e-20)
(0.93351 -0.0662797 1.7122e-27)
(0.933253 -0.0662436 1.25219e-20)
(0.932988 -0.0662071 1.6215e-25)
(0.932715 -0.0661699 -2.5029e-20)
(0.932434 -0.0661322 -1.25107e-20)
(0.932144 -0.0660936 -1.7074e-27)
(0.931849 -0.0660544 1.25023e-20)
(0.931544 -0.0660144 1.75533e-25)
(0.931233 -0.0659736 -1.78332e-25)
(0.935152 -0.0626518 -1.61843e-27)
(0.93487 -0.0623047 1.25489e-20)
(0.934633 -0.0622716 1.504e-25)
(0.934386 -0.0622386 -1.25422e-20)
(0.934132 -0.0622049 1.25385e-20)
(0.933868 -0.062171 1.2535e-20)
(0.933597 -0.0621363 -1.25311e-20)
(0.933317 -0.0621013 -1.25274e-20)
(0.933029 -0.0620656 -1.60327e-27)
(0.932734 -0.0620294 1.60234e-27)
(0.932429 -0.0619925 1.25148e-20)
(0.932118 -0.061955 1.25107e-20)
(0.931797 -0.0619167 3.19884e-27)
(0.936018 -0.0587385 -2.51375e-20)
(0.935741 -0.0584059 -1.25653e-20)
(0.935498 -0.0583751 0)
(0.935245 -0.0583445 -7.61158e-33)
(0.934985 -0.0583132 1.25546e-20)
(0.934715 -0.0582819 1.2551e-20)
(0.934438 -0.0582499 0)
(0.934153 -0.0582177 -1.5038e-27)
(0.93386 -0.0581849 -1.2539e-20)
(0.933559 -0.0581519 -2.50698e-20)
(0.93325 -0.0581181 -2.50612e-20)
(0.932934 -0.058084 -1.69069e-25)
(0.932609 -0.0580493 1.25218e-20)
(0.932278 -0.0580141 0)
(0.936759 -0.054957 -1.25831e-20)
(0.936474 -0.0546382 -1.25797e-20)
(0.936231 -0.0546099 1.41052e-27)
(0.935976 -0.0545818 2.8196e-27)
(0.935717 -0.0545532 -1.2569e-20)
(0.935447 -0.0545247 -1.25653e-20)
(0.93517 -0.0544958 -1.25613e-20)
(0.934884 -0.0544668 -1.25575e-20)
(0.93459 -0.0544374 0)
(0.934288 -0.0544078 -1.40531e-27)
(0.933977 -0.0543778 -5.61812e-27)
(0.933659 -0.0543475 0)
(0.933332 -0.0543168 1.25358e-20)
(0.932998 -0.0542857 1.25313e-20)
(0.932654 -0.0542543 1.25264e-20)
(0.937489 -0.0512934 6.86542e-26)
(0.937206 -0.0509886 -6.29691e-21)
(0.936955 -0.0509635 6.2951e-21)
(0.936693 -0.0509388 6.29335e-21)
(0.936424 -0.0509137 1.31498e-27)
(0.936146 -0.0508888 -6.28947e-21)
(0.935861 -0.0508635 -6.28756e-21)
(0.935568 -0.0508384 0)
(0.935266 -0.050813 -6.28335e-21)
(0.934958 -0.0507875 -6.28128e-21)
(0.934641 -0.0507617 -2.62211e-27)
(0.934318 -0.0507359 -6.27675e-21)
(0.933985 -0.0507097 -7.88526e-26)
(0.933646 -0.0506835 1.25442e-20)
(0.933297 -0.0506569 6.26974e-21)
(0.932941 -0.0506302 6.26719e-21)
(0.938087 -0.0477379 6.30477e-21)
(0.937795 -0.0474473 6.30297e-21)
(0.937541 -0.0474264 0)
(0.937277 -0.0474059 -6.2993e-21)
(0.937008 -0.0473851 -6.29749e-21)
(0.936728 -0.0473646 6.29547e-21)
(0.936441 -0.0473439 6.29355e-21)
(0.936146 -0.0473234 6.29142e-21)
(0.935843 -0.0473027 1.25787e-20)
(0.935532 -0.0472821 6.28723e-21)
(0.935213 -0.0472613 0)
(0.934886 -0.0472406 -2.44004e-27)
(0.93455 -0.0472197 0)
(0.934207 -0.0471989 -6.27794e-21)
(0.933854 -0.0471779 -6.27557e-21)
(0.933494 -0.0471569 2.43571e-27)
(0.933125 -0.0471358 0)
(0.938652 -0.0442905 -1.14375e-27)
(0.938362 -0.0440137 1.1366e-27)
(0.938101 -0.0439971 6.30693e-21)
(0.937831 -0.0439812 6.30512e-21)
(0.937552 -0.043965 -6.30311e-21)
(0.937266 -0.0439493 -6.30119e-21)
(0.936971 -0.0439334 -6.971e-33)
(0.936669 -0.0439179 0)
(0.936359 -0.0439023 0)
(0.936042 -0.043887 -1.13333e-27)
(0.935716 -0.0438716 0)
(0.935383 -0.0438566 -2.26509e-27)
(0.935041 -0.0438414 0)
(0.934693 -0.0438266 -4.52706e-27)
(0.934335 -0.0438118 0)
(0.93397 -0.0437972 6.27821e-21)
(0.933595 -0.0437827 1.25513e-20)
(0.933214 -0.0437683 6.27303e-21)
(0.939093 -0.040944 -6.56479e-33)
(0.938796 -0.0406806 6.31363e-21)
(0.938533 -0.0406687 1.26237e-20)
(0.93826 -0.0406576 1.26199e-20)
(0.937981 -0.0406464 6.30803e-21)
(0.937692 -0.0406359 -6.30595e-21)
(0.937396 -0.0406253 -6.30396e-21)
(0.937092 -0.0406153 0)
(0.93678 -0.0406053 -1.04849e-27)
(0.936459 -0.0405959 0)
(0.93613 -0.0405865 6.29508e-21)
(0.935793 -0.0405776 6.29281e-21)
(0.935448 -0.0405689 -6.29034e-21)
(0.935095 -0.0405607 -6.28797e-21)
(0.934733 -0.0405526 0)
(0.934363 -0.0405451 2.09387e-27)
(0.933984 -0.0405376 6.28016e-21)
(0.933599 -0.0405307 6.27756e-21)
(0.933202 -0.0405239 2.09277e-27)
(0.939506 -0.0376935 6.32031e-21)
(0.939209 -0.0374433 6.31833e-21)
(0.938938 -0.0374364 6.31651e-21)
(0.938658 -0.0374306 0)
(0.93837 -0.0374247 6.31249e-21)
(0.938074 -0.0374198 6.31049e-21)
(0.93777 -0.0374149 6.30831e-21)
(0.937459 -0.0374109 6.30621e-21)
(0.937139 -0.0374071 -9.65813e-28)
(0.936812 -0.037404 0)
(0.936476 -0.0374012 -1.93132e-27)
(0.936134 -0.0373991 -1.93121e-27)
(0.935782 -0.0373974 -6.29448e-21)
(0.935423 -0.0373963 -1.2584e-20)
(0.935056 -0.0373956 -6.2895e-21)
(0.934681 -0.0373956 6.28682e-21)
(0.934297 -0.0373959 6.28423e-21)
(0.933907 -0.0373978 6.28144e-21)
(0.933501 -0.0374002 6.27869e-21)
(0.939804 -0.0345301 6.32412e-21)
(0.939499 -0.0342934 5.89812e-26)
(0.939225 -0.0342922 -6.32029e-21)
(0.938941 -0.0342923 -6.31825e-21)
(0.938652 -0.0342925 -6.20109e-26)
(0.938352 -0.0342939 6.31421e-21)
(0.938046 -0.0342956 0)
(0.937731 -0.0342983 6.30982e-21)
(0.937408 -0.0343013 6.30764e-21)
(0.937077 -0.0343054 -6.30527e-21)
(0.936737 -0.0343099 -6.93423e-26)
(0.93639 -0.0343153 6.30055e-21)
(0.936034 -0.0343212 -3.54415e-27)
(0.935671 -0.0343281 0)
(0.935299 -0.0343355 0)
(0.934921 -0.0343446 1.77328e-27)
(0.934526 -0.0343545 -6.28751e-21)
(0.934126 -0.0343667 -1.25695e-20)
(0.933711 -0.0343795 -6.28192e-21)
(0.933293 -0.034395 1.7759e-27)
(0.940068 -0.0314504 6.32771e-21)
(0.939762 -0.0312275 5.82954e-26)
(0.939479 -0.0312327 -6.32381e-21)
(0.939188 -0.0312394 -8.06365e-28)
(0.938889 -0.0312464 1.6131e-27)
(0.938581 -0.0312548 -6.31749e-21)
(0.938267 -0.0312636 -6.31536e-21)
(0.937944 -0.0312738 0)
(0.937613 -0.0312844 0)
(0.937275 -0.0312963 0)
(0.936929 -0.0313087 0)
(0.936576 -0.0313224 1.11491e-32)
(0.936214 -0.0313367 -3.23554e-27)
(0.935847 -0.0313531 -6.29843e-21)
(0.935463 -0.0313703 -6.29583e-21)
(0.935075 -0.0313903 1.01926e-32)
(0.934671 -0.0314109 0)
(0.934264 -0.0314346 1.62284e-27)
(0.933839 -0.0314588 0)
(0.933411 -0.0314859 0)
(0.932968 -0.0315133 1.62691e-27)
(0.940218 -0.0284498 2.79776e-26)
(0.939904 -0.0282409 -3.16425e-21)
(0.939618 -0.0282533 7.29174e-28)
(0.939322 -0.0282673 3.16218e-21)
(0.939021 -0.0282819 6.3223e-21)
(0.938709 -0.0282981 3.1062e-26)
(0.938391 -0.0283149 -3.15897e-21)
(0.938064 -0.0283332 -7.31236e-28)
(0.937731 -0.0283522 3.15663e-21)
(0.937389 -0.0283726 6.31092e-21)
(0.937038 -0.0283939 3.43836e-26)
(0.936682 -0.0284174 -3.49318e-26)
(0.936309 -0.028442 3.25451e-26)
(0.935932 -0.0284695 -6.30075e-21)
(0.935539 -0.0284979 -3.51242e-26)
(0.935144 -0.0285296 3.42249e-26)
(0.93473 -0.028562 -6.29238e-21)
(0.934314 -0.0285977 -3.14475e-21)
(0.933883 -0.0286338 0)
(0.933449 -0.0286722 -3.1417e-21)
(0.933004 -0.0287108 -6.28034e-21)
(0.940331 -0.0255257 3.16648e-21)
(0.940015 -0.0253313 3.16547e-21)
(0.93972 -0.0253516 0)
(0.939415 -0.0253739 6.54733e-28)
(0.939104 -0.0253968 0)
(0.938784 -0.0254215 4.48646e-33)
(0.938458 -0.0254469 3.16001e-21)
(0.938125 -0.0254742 3.15888e-21)
(0.937783 -0.0255023 -3.15765e-21)
(0.937436 -0.025533 -3.15647e-21)
(0.937073 -0.0255649 1.01954e-32)
(0.936705 -0.0256 3.15389e-21)
(0.936323 -0.0256361 3.15259e-21)
(0.935938 -0.0256758 1.32508e-27)
(0.935535 -0.0257164 -3.14981e-21)
(0.93513 -0.0257605 -3.14843e-21)
(0.934709 -0.0258052 -3.14692e-21)
(0.934287 -0.0258526 -3.14548e-21)
(0.933854 -0.0259002 0)
(0.933417 -0.0259497 -3.14241e-21)
(0.932972 -0.0259997 -3.77145e-26)
(0.932522 -0.0260512 3.83045e-26)
(0.940331 -0.0226762 -3.16732e-21)
(0.940007 -0.0224967 -6.33253e-21)
(0.939707 -0.0225256 -3.16523e-21)
(0.939398 -0.0225566 5.81909e-28)
(0.939085 -0.0225885 5.82729e-28)
(0.938762 -0.0226224 -3.1619e-21)
(0.938433 -0.0226574 -3.16078e-21)
(0.938096 -0.0226952 -5.85487e-28)
(0.937745 -0.0227342 3.15834e-21)
(0.937388 -0.0227768 3.15713e-21)
(0.937017 -0.0228206 -1.17747e-27)
(0.936642 -0.0228682 -1.17993e-27)
(0.93625 -0.0229168 -3.15312e-21)
(0.935855 -0.0229694 -3.16671e-26)
(0.935446 -0.0230227 6.30065e-21)
(0.935035 -0.0230789 3.1489e-21)
(0.934613 -0.0231356 -3.14739e-21)
(0.934188 -0.0231945 -3.14594e-21)
(0.933755 -0.023254 0)
(0.933317 -0.0233154 0)
(0.932871 -0.0233778 -1.20628e-27)
(0.932418 -0.0234421 3.13971e-21)
(0.940292 -0.0198977 -6.33603e-21)
(0.939965 -0.0197338 -2.56922e-26)
(0.939657 -0.0197722 3.16587e-21)
(0.93934 -0.0198129 -3.16474e-21)
(0.939017 -0.0198547 -2.7048e-26)
(0.938687 -0.0198997 6.32493e-21)
(0.938344 -0.019946 6.32253e-21)
(0.937995 -0.0199962 3.16005e-21)
(0.937632 -0.0200476 0)
(0.937267 -0.0201032 0)
(0.936885 -0.0201599 3.15614e-21)
(0.936499 -0.0202208 3.0981e-26)
(0.9361 -0.0202826 -3.15343e-21)
(0.935699 -0.0203476 -3.15199e-21)
(0.935287 -0.0204134 -3.36276e-26)
(0.934873 -0.0204814 3.14913e-21)
(0.93445 -0.0205504 9.7168e-33)
(0.934023 -0.0206214 -3.14612e-21)
(0.933588 -0.0206938 -3.14463e-21)
(0.933147 -0.0207682 0)
(0.932699 -0.0208443 -3.14148e-21)
(0.932244 -0.0209218 -3.13992e-21)
(0.931785 -0.0210014 3.13827e-21)
(0.940141 -0.0171904 0)
(0.939807 -0.0170422 3.16718e-21)
(0.939495 -0.0170908 3.16611e-21)
(0.939175 -0.0171428 0)
(0.938843 -0.0171963 0)
(0.938504 -0.0172538 0)
(0.938153 -0.0173128 8.92699e-28)
(0.937798 -0.0173762 3.16014e-21)
(0.937427 -0.0174409 6.31771e-21)
(0.937052 -0.01751 2.9208e-26)
(0.936664 -0.0175802 -3.15619e-21)
(0.936274 -0.0176539 9.10333e-28)
(0.935873 -0.0177285 -3.15339e-21)
(0.935469 -0.0178056 -3.152e-21)
(0.935058 -0.0178839 0)
(0.934642 -0.0179643 0)
(0.934219 -0.0180464 -9.30638e-28)
(0.93379 -0.0181306 -9.34991e-28)
(0.933354 -0.0182168 0)
(0.93291 -0.0183046 0)
(0.932464 -0.0183948 9.48652e-28)
(0.932008 -0.0184861 8.6146e-33)
(0.931549 -0.0185803 0)
(0.939953 -0.0145509 -6.33688e-21)
(0.939617 -0.0144206 -2.48226e-26)
(0.93929 -0.0144814 3.16619e-21)
(0.938956 -0.0145465 3.74836e-28)
(0.938611 -0.0146131 3.76559e-28)
(0.938263 -0.0146843 0)
(0.937899 -0.0147568 3.66479e-33)
(0.937532 -0.0148338 0)
(0.937153 -0.0149121 -3.15866e-21)
(0.936771 -0.0149937 -3.15735e-21)
(0.93638 -0.0150767 0)
(0.935986 -0.0151621 -3.15456e-21)
(0.935585 -0.015249 -3.15318e-21)
(0.935179 -0.0153381 7.90612e-28)
(0.934767 -0.0154293 0)
(0.934348 -0.0155224 0)
(0.933924 -0.0156182 -8.0509e-28)
(0.933492 -0.0157156 8.10125e-28)
(0.933058 -0.015816 3.14426e-21)
(0.932614 -0.015918 3.45085e-26)
(0.932166 -0.0160233 -3.42267e-26)
(0.931709 -0.0161303 3.13955e-21)
(0.93125 -0.0162409 0)
(0.930779 -0.0163534 -1.68621e-27)
(0.939646 -0.011983 0)
(0.939297 -0.0118717 3.0569e-28)
(0.938964 -0.0119461 3.16581e-21)
(0.938625 -0.0120255 2.50118e-26)
(0.938274 -0.0121062 -6.32678e-21)
(0.937917 -0.0121911 -2.59114e-26)
(0.937551 -0.0122775 2.60364e-26)
(0.937181 -0.0123667 -2.65002e-26)
(0.936803 -0.0124578 3.15823e-21)
(0.936419 -0.0125508 3.15686e-21)
(0.93603 -0.0126461 3.15551e-21)
(0.935636 -0.012743 3.1541e-21)
(0.935236 -0.0128428 3.15272e-21)
(0.934828 -0.0129444 0)
(0.934415 -0.0130495 6.7228e-28)
(0.933995 -0.0131562 -3.14831e-21)
(0.933571 -0.0132668 -3.1253e-26)
(0.933138 -0.0133793 3.14533e-21)
(0.9327 -0.0134958 0)
(0.932253 -0.0136146 6.3279e-33)
(0.931804 -0.0137372 3.14059e-21)
(0.931344 -0.0138627 3.13899e-21)
(0.93088 -0.013992 0)
(0.930407 -0.0141247 -1.45577e-27)
(0.939288 -0.00947986 -1.58384e-21)
(0.938938 -0.00938535 -1.58326e-21)
(0.938591 -0.00947212 2.43658e-28)
(0.938239 -0.00956282 -1.58202e-21)
(0.937882 -0.00965567 -1.2149e-26)
(0.937521 -0.00975197 1.58077e-21)
(0.937155 -0.00985048 0)
(0.936783 -0.00995228 2.56077e-28)
(0.936405 -0.0100565 -2.8831e-33)
(0.936021 -0.0101641 0)
(0.935631 -0.0102743 5.28795e-28)
(0.935234 -0.010388 1.57672e-21)
(0.934831 -0.0105047 1.57602e-21)
(0.93442 -0.0106249 -5.46926e-28)
(0.934005 -0.0107482 1.57455e-21)
(0.933582 -0.0108746 1.57382e-21)
(0.933152 -0.0110043 5.6655e-28)
(0.932714 -0.0111368 -1.57227e-21)
(0.932273 -0.0112728 -1.5715e-21)
(0.931824 -0.0114114 -5.87597e-28)
(0.931369 -0.0115538 5.9496e-28)
(0.930906 -0.0116989 -6.8191e-33)
(0.930439 -0.0118481 0)
(0.929963 -0.0120007 -1.5674e-21)
(0.93885 -0.00704526 -1.12676e-26)
(0.938491 -0.00696681 1.14368e-26)
(0.938143 -0.0070658 -1.58225e-21)
(0.93779 -0.00716765 0)
(0.937429 -0.00727284 1.58098e-21)
(0.937062 -0.00738173 3.16067e-21)
(0.936688 -0.00749381 1.57968e-21)
(0.93631 -0.00761027 -1.579e-21)
(0.935925 -0.00772977 -3.15665e-21)
(0.935534 -0.00785393 -3.15527e-21)
(0.935137 -0.00798095 -3.15387e-21)
(0.934734 -0.00811256 -1.57623e-21)
(0.934327 -0.0082471 0)
(0.933911 -0.00838562 -8.62308e-28)
(0.933494 -0.00852712 4.38474e-28)
(0.933069 -0.00867242 4.45986e-28)
(0.932642 -0.00882111 -1.57251e-21)
(0.932206 -0.00897306 -3.14348e-21)
(0.931767 -0.00912868 -1.57097e-21)
(0.931319 -0.00928766 -4.77791e-28)
(0.930868 -0.00945066 0)
(0.930407 -0.00961734 9.89681e-28)
(0.929939 -0.00978816 -1.5677e-21)
(0.929463 -0.00996289 -1.56688e-21)
(0.92898 -0.0101417 1.566e-21)
(0.938379 -0.00467728 0)
(0.938018 -0.00461984 1.5824e-21)
(0.937659 -0.00473468 1.58177e-21)
(0.937296 -0.00485337 0)
(0.936924 -0.00497541 1.27417e-28)
(0.93655 -0.0051011 -1.3067e-28)
(0.936168 -0.0052302 -1.34007e-28)
(0.935781 -0.00536283 -1.57844e-21)
(0.93539 -0.00549904 -1.57776e-21)
(0.934993 -0.00563853 0)
(0.934593 -0.0057819 0)
(0.934186 -0.00592855 3.04117e-28)
(0.933778 -0.00607931 0)
(0.933361 -0.00623345 -3.19888e-28)
(0.932943 -0.00639191 0)
(0.932515 -0.00655407 -3.36459e-28)
(0.932084 -0.00672063 -3.45078e-28)
(0.931646 -0.00689156 0)
(0.931204 -0.0070669 0)
(0.930754 -0.00724706 -3.72296e-28)
(0.930297 -0.00743149 -3.81825e-28)
(0.929833 -0.00762084 3.91622e-28)
(0.929365 -0.0078143 0)
(0.928888 -0.00801262 8.23757e-28)
(0.928406 -0.00821474 1.56532e-21)
(0.937785 -0.00237457 -1.58234e-21)
(0.937416 -0.00233958 -1.58173e-21)
(0.937056 -0.00247175 0)
(0.936691 -0.00260755 -6.62062e-29)
(0.93632 -0.00274668 3.0586e-33)
(0.935944 -0.00288881 0)
(0.935563 -0.00303479 0)
(0.935176 -0.00318342 -1.57774e-21)
(0.934786 -0.00333649 -1.57706e-21)
(0.934389 -0.00349246 1.78166e-28)
(0.933987 -0.00365329 0)
(0.933579 -0.00381732 7.3465e-33)
(0.933167 -0.00398644 -1.57417e-21)
(0.932747 -0.00415946 -1.57343e-21)
(0.932324 -0.00433754 0)
(0.931894 -0.00452027 -2.31315e-28)
(0.931461 -0.00470789 0)
(0.93102 -0.00490065 0)
(0.930575 -0.00509802 0)
(0.930122 -0.00530074 -2.71662e-28)
(0.929667 -0.00550783 -5.64746e-28)
(0.929204 -0.00572023 1.56709e-21)
(0.928735 -0.0059367 1.55192e-26)
(0.92826 -0.00615829 -1.56542e-21)
(0.92778 -0.00638374 -6.55328e-28)
(0.937145 -0.000138708 -2.38786e-30)
(0.936779 -0.000121621 1.94347e-30)
(0.936417 -0.000268368 0)
(0.936049 -0.000418456 -3.10021e-33)
(0.935676 -0.000573087 -1.36181e-29)
(0.935298 -0.000730891 1.57833e-21)
(0.934916 -0.000893614 1.15634e-26)
(0.934527 -0.00106009 -1.17426e-26)
(0.934132 -0.00123174 1.57627e-21)
(0.933731 -0.00140745 1.57554e-21)
(0.933326 -0.00158836 1.57483e-21)
(0.932915 -0.00177404 -6.24648e-33)
(0.932499 -0.00196481 -1.57334e-21)
(0.932077 -0.00216077 -3.14518e-21)
(0.931649 -0.00236162 -1.57184e-21)
(0.931215 -0.00256785 0)
(0.930778 -0.00277873 0)
(0.930334 -0.00299516 -1.5246e-28)
(0.929887 -0.00321605 1.56866e-21)
(0.929434 -0.00344253 3.13572e-21)
(0.928976 -0.00367324 3.13407e-21)
(0.928513 -0.00390947 1.56621e-21)
(0.928046 -0.00414978 -1.56536e-21)
(0.927573 -0.00439544 -1.56452e-21)
(0.927095 -0.00464488 1.56365e-21)
(0.926613 -0.00489937 1.73604e-26)
(0.936446 0.00204616 -1.58074e-21)
(0.936075 0.00204199 -1.0797e-28)
(0.935709 0.00187808 0)
(0.935338 0.00170961 2.4339e-33)
(0.934962 0.00153643 0)
(0.93458 0.00135838 0)
(0.934192 0.00117537 -1.57674e-21)
(0.933798 0.000987221 -1.57604e-21)
(0.933401 0.0007941 0)
(0.932997 0.0005956 3.31833e-29)
(0.932587 0.000392118 2.2669e-29)
(0.932171 0.000183199 -1.18615e-29)
(0.931751 -3.06312e-05 1.57237e-21)
(0.931325 -0.000250034 3.14322e-21)
(0.930897 -0.000474199 3.14168e-21)
(0.930463 -0.000704111 1.57007e-21)
(0.930027 -0.000938662 -4.61378e-29)
(0.929584 -0.001179 -5.41398e-33)
(0.929138 -0.00142381 1.56767e-21)
(0.928686 -0.00167437 1.56687e-21)
(0.928233 -0.00192929 1.56604e-21)
(0.927773 -0.00218984 1.56522e-21)
(0.927309 -0.00245449 1.24516e-28)
(0.92684 -0.00272454 1.56352e-21)
(0.926368 -0.00299851 1.56268e-21)
(0.925889 -0.00327753 3.3414e-28)
(0.935691 0.00414812 -1.57978e-21)
(0.935315 0.00412141 -1.07737e-28)
(0.934942 0.0039389 -1.57845e-21)
(0.934565 0.00375145 -3.15557e-21)
(0.934183 0.00355873 -1.5771e-21)
(0.933796 0.00336055 0)
(0.933405 0.00315699 8.28082e-29)
(0.933008 0.00294761 0)
(0.932606 0.002733 -1.57427e-21)
(0.932198 0.0025124 -1.57355e-21)
(0.931788 0.00228662 1.5728e-21)
(0.931371 0.00205487 3.14411e-21)
(0.930952 0.00181809 1.5713e-21)
(0.930527 0.00157542 8.38385e-29)
(0.930098 0.00132777 1.56975e-21)
(0.929663 0.00107423 1.56898e-21)
(0.929226 0.000815812 8.91341e-29)
(0.928784 0.000551401 -3.08942e-29)
(0.92834 0.000282239 1.69832e-29)
(0.92789 7.09959e-06 -1.56576e-21)
(0.927437 -0.000272536 -1.56496e-21)
(0.92698 -0.000557993 0)
(0.926522 -0.000847733 1.56328e-21)
(0.926058 -0.00114299 1.56245e-21)
(0.925591 -0.00144209 1.56159e-21)
(0.925121 -0.0017463 1.56075e-21)
(0.93487 0.00617635 0)
(0.934489 0.00612497 0)
(0.934113 0.00592192 7.88672e-22)
(0.933732 0.00571337 5.199e-27)
(0.933346 0.00549926 -7.87989e-22)
(0.932955 0.00527959 -1.37678e-28)
(0.932558 0.00505418 1.31848e-28)
(0.932157 0.00482329 0)
(0.931752 0.00458658 0)
(0.931343 0.00434424 7.86181e-22)
(0.930929 0.0040961 7.85813e-22)
(0.930511 0.00384217 2.01032e-28)
(0.930089 0.00358245 -7.85049e-22)
(0.929663 0.0033167 -7.8467e-22)
(0.929236 0.00304533 0)
(0.928804 0.00276771 7.83885e-22)
(0.92837 0.00248472 7.83498e-22)
(0.927931 0.00219552 0)
(0.927489 0.00190126 -5.20787e-33)
(0.927044 0.00160088 1.70307e-28)
(0.926598 0.00129573 0)
(0.926147 0.000984749 -5.33008e-29)
(0.925693 0.000669445 -3.69997e-29)
(0.925236 0.000348682 4.083e-29)
(0.924778 2.39278e-05 -9.09166e-33)
(0.924314 -0.000305777 5.36956e-29)
(0.933984 0.00814296 0)
(0.933599 0.00806687 -2.0973e-28)
(0.933218 0.00784291 2.03938e-28)
(0.932833 0.00761292 -7.87711e-22)
(0.932444 0.00737703 -7.87366e-22)
(0.932051 0.00713498 2.261e-33)
(0.931655 0.00688693 0)
(0.931254 0.00663278 7.86286e-22)
(0.930849 0.00637258 1.57184e-21)
(0.930439 0.00610635 7.85554e-22)
(0.930027 0.00583402 -7.85175e-22)
(0.92961 0.00555553 -7.84803e-22)
(0.92919 0.005271 0)
(0.928766 0.0049802 7.8403e-22)
(0.928338 0.00468346 7.83647e-22)
(0.927906 0.00438043 2.28863e-28)
(0.927472 0.00407172 -7.82853e-22)
(0.927036 0.00375669 -7.82461e-22)
(0.926599 0.00343632 -3.60097e-28)
(0.926158 0.00310983 3.26333e-28)
(0.925715 0.00277846 0)
(0.92527 0.00244128 -1.28599e-28)
(0.924824 0.00209961 7.8043e-22)
(0.924375 0.00175258 7.80025e-22)
(0.923925 0.00140169 -7.79604e-22)
(0.923473 0.00104596 -7.79196e-22)
(0.923019 0.000686859 -7.7877e-22)
(0.933047 0.010041 7.88085e-22)
(0.932657 0.00993988 4.34299e-27)
(0.932273 0.00969429 -7.87402e-22)
(0.931885 0.00944273 7.87047e-22)
(0.931493 0.00918459 7.86696e-22)
(0.931097 0.0089202 2.31785e-28)
(0.930696 0.00864918 -2.24782e-28)
(0.930292 0.00837159 -2.17603e-28)
(0.929886 0.00808739 -7.85235e-22)
(0.929476 0.00779641 -5.40698e-27)
(0.929063 0.00749898 5.51419e-27)
(0.928646 0.00719472 -1.56822e-21)
(0.928227 0.00688413 -7.83728e-22)
(0.927804 0.00656674 7.83337e-22)
(0.92738 0.00624334 5.65792e-27)
(0.926954 0.00591325 -7.82564e-22)
(0.926526 0.00557745 7.82166e-22)
(0.926095 0.00523525 6.3608e-27)
(0.925662 0.00488773 -6.74615e-27)
(0.925228 0.00453413 7.80981e-22)
(0.924795 0.00417558 7.80574e-22)
(0.924358 0.00381138 1.56035e-21)
(0.92392 0.00344282 1.55954e-21)
(0.923481 0.0030691 1.55873e-21)
(0.923042 0.00269151 7.78963e-22)
(0.9226 0.00230943 7.78546e-22)
(0.922158 0.00192426 7.78145e-22)
(0.932052 0.0118744 -7.8738e-22)
(0.931661 0.0117464 -4.47862e-27)
(0.931274 0.0114776 4.86644e-27)
(0.930884 0.0112022 -7.86335e-22)
(0.93049 0.01092 2.26821e-33)
(0.930093 0.0106309 0)
(0.929693 0.010335 7.85248e-22)
(0.92929 0.0100322 1.56976e-21)
(0.928882 0.00972252 7.84513e-22)
(0.928472 0.00940585 0)
(0.92806 0.00908238 7.83757e-22)
(0.927645 0.00875187 7.83382e-22)
(0.927228 0.0084148 0)
(0.926809 0.00807082 4.19653e-28)
(0.926388 0.00772048 -4.0154e-28)
(0.925964 0.00736344 0)
(0.92554 0.0070004 -3.64315e-28)
(0.925115 0.00663084 -7.81048e-22)
(0.92469 0.00625576 -7.80661e-22)
(0.924264 0.00587456 0)
(0.923836 0.00548846 0)
(0.923409 0.00509674 2.65888e-28)
(0.922983 0.00470065 -3.84959e-33)
(0.922555 0.00429964 -4.49363e-28)
(0.922127 0.00389509 0)
(0.9217 0.00348633 -3.65256e-28)
(0.921273 0.00307469 3.22691e-28)
(0.931008 0.0136321 7.0718e-28)
(0.93061 0.0134774 7.86277e-22)
(0.930221 0.0131851 7.85927e-22)
(0.929829 0.0128859 -3.34301e-28)
(0.929434 0.0125792 3.2637e-28)
(0.929036 0.0122656 -7.8484e-22)
(0.928633 0.0119444 -4.5363e-27)
(0.928229 0.0116163 7.84107e-22)
(0.927824 0.0112807 -2.92802e-28)
(0.927416 0.0109379 -7.83355e-22)
(0.927005 0.0105878 -7.82982e-22)
(0.926593 0.0102306 -7.82597e-22)
(0.926179 0.00986625 -5.50433e-27)
(0.925764 0.00949481 1.56367e-21)
(0.925349 0.00911668 1.5629e-21)
(0.924933 0.00873162 7.81069e-22)
(0.924516 0.00834036 -4.33587e-28)
(0.924099 0.00794268 0)
(0.923681 0.00753939 3.92176e-28)
(0.923264 0.00713013 0)
(0.92285 0.00671588 0)
(0.922433 0.00629634 0)
(0.922018 0.00587265 7.78345e-22)
(0.921604 0.00544437 7.77963e-22)
(0.921191 0.00501263 0)
(0.920777 0.00457723 4.78064e-28)
(0.920364 0.00413939 7.76791e-22)
(0.929915 0.0153313 -7.85834e-22)
(0.929519 0.0151481 0)
(0.929128 0.0148309 0)
(0.928734 0.0145063 -3.76186e-28)
(0.928338 0.0141739 7.84397e-22)
(0.92794 0.0138342 7.84037e-22)
(0.927541 0.0134865 -7.83664e-22)
(0.927139 0.0131313 -1.56659e-21)
(0.926733 0.0127683 -4.94306e-27)
(0.926327 0.0123978 1.56509e-21)
(0.92592 0.0120196 7.82173e-22)
(0.925511 0.011634 0)
(0.925101 0.011241 0)
(0.924691 0.0108409 -7.81028e-22)
(0.92428 0.0104338 -7.80651e-22)
(0.923869 0.01002 -1.04086e-27)
(0.92346 0.00959987 0)
(0.923051 0.00917333 7.79497e-22)
(0.922644 0.00874112 6.14364e-27)
(0.922238 0.00830322 -7.78739e-22)
(0.921833 0.00786049 0)
(0.921429 0.00741276 0)
(0.921029 0.00696096 -3.62269e-28)
(0.920629 0.00650508 0)
(0.920231 0.00604618 0)
(0.919835 0.00558406 5.82163e-28)
(0.919441 0.00511986 0)
(0.919046 0.00465363 0)
(0.928772 0.0169641 7.84986e-22)
(0.928373 0.016755 7.84634e-22)
(0.927983 0.0164134 0)
(0.927589 0.0160641 0)
(0.927193 0.0157057 0)
(0.926796 0.0153392 7.83178e-22)
(0.926395 0.014964 4.61979e-27)
(0.925993 0.0145805 -7.8244e-22)
(0.925592 0.0141886 0)
(0.925189 0.0137885 -7.1526e-28)
(0.924785 0.0133807 0)
(0.924381 0.012965 6.72683e-28)
(0.923977 0.0125418 0)
(0.923573 0.0121113 -7.80179e-22)
(0.923172 0.0116741 -1.55961e-21)
(0.922771 0.01123 -1.55886e-21)
(0.922372 0.0107798 -7.79056e-22)
(0.921973 0.0103236 5.36117e-28)
(0.921578 0.00986181 -5.12247e-28)
(0.921184 0.00939472 0)
(0.920794 0.00892292 0)
(0.920405 0.00844666 0)
(0.920019 0.00796673 0)
(0.919636 0.00748321 0)
(0.919256 0.00699696 7.76086e-22)
(0.918877 0.00650829 7.75729e-22)
(0.918501 0.00601816 6.27055e-28)
(0.918129 0.00552661 0)
(0.927607 0.0185498 -4.80712e-28)
(0.927211 0.0183086 -4.74476e-28)
(0.926815 0.0179378 0)
(0.926418 0.0175585 0)
(0.926019 0.0171701 3.9133e-22)
(0.92562 0.0167732 3.91148e-22)
(0.92522 0.0163677 4.24304e-28)
(0.924821 0.0159537 3.90773e-22)
(0.924419 0.0155315 3.90589e-22)
(0.924019 0.0151011 0)
(0.923621 0.0146627 -3.90213e-22)
(0.923223 0.0142166 -3.90027e-22)
(0.922825 0.0137631 -3.89838e-22)
(0.922431 0.0133025 -3.89655e-22)
(0.922037 0.0128348 0)
(0.921645 0.0123607 6.41444e-28)
(0.921256 0.0118804 3.34617e-33)
(0.920871 0.0113942 -5.9147e-28)
(0.920489 0.0109025 -5.66049e-28)
(0.920109 0.010406 -3.88547e-22)
(0.919733 0.00990501 -7.76736e-22)
(0.919361 0.0094 -3.8819e-22)
(0.918993 0.00889162 -3.8801e-22)
(0.918627 0.00838037 -3.87836e-22)
(0.918266 0.00786706 -8.18233e-28)
(0.917909 0.00735195 0)
(0.917555 0.00683597 1.42323e-27)
(0.917202 0.00631963 -6.58229e-28)
(0.926372 0.0200895 -3.91596e-22)
(0.92597 0.0198077 -7.82828e-22)
(0.925574 0.0194028 -3.91231e-22)
(0.925179 0.0189894 0)
(0.924783 0.0185684 0)
(0.924388 0.0181388 0)
(0.923991 0.0177013 4.58774e-28)
(0.923596 0.0172554 -3.90305e-22)
(0.923202 0.0168016 -3.90121e-22)
(0.922809 0.0163397 0)
(0.922417 0.01587 -8.2287e-28)
(0.922027 0.0153928 0)
(0.92164 0.0149081 0)
(0.921254 0.0144164 -1.49544e-27)
(0.920873 0.0139179 3.89015e-22)
(0.920494 0.013413 7.77671e-22)
(0.920119 0.0129019 3.88657e-22)
(0.919746 0.0123855 3.88473e-22)
(0.919378 0.0118638 3.88299e-22)
(0.919015 0.0113376 0)
(0.918658 0.0108072 -3.87947e-22)
(0.918302 0.0102735 -3.87776e-22)
(0.917953 0.00973697 -2.89931e-33)
(0.917608 0.00919821 9.55874e-28)
(0.917268 0.0086579 -8.99998e-28)
(0.916931 0.00811683 8.44059e-28)
(0.916599 0.00757571 1.57621e-27)
(0.916272 0.00703502 6.58526e-33)
(0.92507 0.0215286 3.91099e-22)
(0.924675 0.0212134 3.9092e-22)
(0.924289 0.0207795 1.07669e-27)
(0.923902 0.0203359 -5.2688e-28)
(0.923512 0.0198849 -3.90373e-22)
(0.923123 0.0194248 -3.90192e-22)
(0.922734 0.0189568 0)
(0.922346 0.0184802 -3.89823e-22)
(0.921958 0.0179955 -3.89641e-22)
(0.921572 0.0175028 -9.07285e-28)
(0.92119 0.0170019 0)
(0.92081 0.0164936 3.89091e-22)
(0.920432 0.0159776 3.88913e-22)
(0.920059 0.0154549 -1.60282e-27)
(0.919688 0.014925 0)
(0.919321 0.0143892 7.46308e-28)
(0.918961 0.0138472 0)
(0.918604 0.0133 -3.88026e-22)
(0.918254 0.0127479 -2.88921e-27)
(0.917907 0.0121918 3.87688e-22)
(0.917567 0.011632 0)
(0.917232 0.0110695 3.87352e-22)
(0.916905 0.0105047 3.87193e-22)
(0.91658 0.00993867 2.06487e-27)
(0.916263 0.00937192 9.73835e-28)
(0.915951 0.00880519 9.15229e-28)
(0.915644 0.00823928 1.71343e-27)
(0.91534 0.00767513 7.9838e-28)
(0.923766 0.0228464 0)
(0.923356 0.0225146 0)
(0.922975 0.0220611 5.71475e-28)
(0.922591 0.0215961 -5.59455e-28)
(0.922208 0.0211203 -5.47157e-28)
(0.921825 0.0206344 5.34595e-28)
(0.921443 0.0201384 0)
(0.921062 0.0196331 -3.89324e-22)
(0.920685 0.0191183 -3.89146e-22)
(0.920309 0.018595 3.81686e-33)
(0.919935 0.018063 -9.36247e-28)
(0.919566 0.0175233 3.88605e-22)
(0.919201 0.0169753 3.8843e-22)
(0.918839 0.0164206 -8.51331e-28)
(0.918483 0.0158588 0)
(0.918133 0.0152912 0)
(0.917787 0.0147176 -3.87737e-22)
(0.917447 0.0141394 -3.87571e-22)
(0.917114 0.0135565 0)
(0.916788 0.0129703 0)
(0.916469 0.0123809 0)
(0.916155 0.0117897 3.86924e-22)
(0.915848 0.0111971 3.86774e-22)
(0.915549 0.010604 -3.86617e-22)
(0.915257 0.010011 -3.86472e-22)
(0.914968 0.00941936 0)
(0.914687 0.00882959 -3.86176e-22)
(0.914412 0.00824254 -3.8604e-22)
(0.922488 0.0241365 -6.25124e-28)
(0.922083 0.0237749 0)
(0.921688 0.0232933 3.89733e-22)
(0.921297 0.0228017 3.8955e-22)
(0.920911 0.0222974 -5.77582e-28)
(0.920527 0.0217831 3.89182e-22)
(0.920148 0.0212571 7.78002e-22)
(0.919771 0.0207216 2.66267e-27)
(0.919398 0.0201754 -3.88641e-22)
(0.919029 0.0196205 -3.8846e-22)
(0.918666 0.0190559 -7.76573e-22)
(0.918307 0.0184836 -7.76222e-22)
(0.917953 0.0179029 -3.87939e-22)
(0.917606 0.0173155 3.87765e-22)
(0.917264 0.0167209 3.87598e-22)
(0.916927 0.0161209 -3.8743e-22)
(0.9166 0.0155152 -7.74535e-22)
(0.916279 0.0149053 -3.87108e-22)
(0.915966 0.0142913 3.86948e-22)
(0.91566 0.0136749 3.86795e-22)
(0.915362 0.0130561 0)
(0.915073 0.0124362 2.88477e-33)
(0.914792 0.0118158 3.86347e-22)
(0.914516 0.0111962 3.18875e-27)
(0.914249 0.0105778 -3.86069e-22)
(0.91399 0.00996174 0)
(0.913737 0.00934874 -3.85795e-22)
(0.913488 0.00874006 -3.85668e-22)
(0.913246 0.00813619 -8.46059e-28)
(0.921128 0.0254182 -6.58254e-28)
(0.92073 0.0250204 3.89394e-22)
(0.920344 0.0245038 1.82713e-27)
(0.919958 0.0239775 -7.78053e-22)
(0.919576 0.0234383 -3.88845e-22)
(0.919197 0.0228891 0)
(0.918821 0.0223281 3.8848e-22)
(0.918451 0.0217574 3.88303e-22)
(0.918087 0.021176 3.88123e-22)
(0.917728 0.0205858 3.8795e-22)
(0.917373 0.0199861 -2.07134e-27)
(0.917027 0.0193788 -1.00427e-27)
(0.916688 0.0187632 9.72446e-28)
(0.916354 0.0181414 0)
(0.916029 0.0175129 3.87104e-22)
(0.915712 0.0168795 3.86948e-22)
(0.915403 0.016241 3.86788e-22)