# p  FACE_DATA 341
#  x  y  z  p
0.253551 0.0594249 0.5 -1014.09
0.260625 0.059604 0.5 -1053.58
0.268301 0.0597641 0.5 -1088.14
0.275825 0.0598682 0.5 -1069.49
0.282831 0.059928 0.5 -1040.57
0.290299 0.0599719 0.5 -1028.59
0.298014 0.0599954 0.5 -1019.2
0.305661 0.0599931 0.5 -1011.49
0.313016 0.0599637 0.5 -1000.73
0.3202 0.0599102 0.5 -987.169
0.327394 0.0598346 0.5 -975.078
0.334592 0.0597382 0.5 -962.957
0.341788 0.059622 0.5 -950.706
0.348891 0.0594882 0.5 -939.273
0.355903 0.0593371 0.5 -928.15
0.362912 0.0591677 0.5 -915.862
0.369915 0.058981 0.5 -903.51
0.376908 0.0587783 0.5 -891.664
0.383848 0.0585616 0.5 -880.117
0.39071 0.0583318 0.5 -869.16
0.397536 0.0580877 0.5 -857.426
0.404349 0.0578293 0.5 -845.758
0.411146 0.0575577 0.5 -833.963
0.417921 0.0572738 0.5 -822.367
0.424635 0.05698 0.5 -811.319
0.431287 0.0566758 0.5 -800.615
0.437919 0.0563599 0.5 -789.26
0.444529 0.056033 0.5 -777.753
0.451115 0.055696 0.5 -766.409
0.457672 0.0553498 0.5 -755.302
0.464179 0.0549959 0.5 -744.867
0.47064 0.0546337 0.5 -734.325
0.477077 0.0542621 0.5 -723.39
0.483487 0.0538822 0.5 -712.37
0.489866 0.0534947 0.5 -701.554
0.496211 0.0531004 0.5 -690.924
0.50252 0.0526998 0.5 -680.655
0.508797 0.0522921 0.5 -670.577
0.515045 0.0518774 0.5 -660.071
0.52126 0.0514563 0.5 -649.552
0.52744 0.0510296 0.5 -639.101
0.533582 0.0505981 0.5 -628.805
0.539695 0.0501616 0.5 -618.78
0.545788 0.0497191 0.5 -609.132
0.551854 0.0492707 0.5 -599.156
0.557885 0.0488177 0.5 -589.081
0.563876 0.0483607 0.5 -578.994
0.569827 0.0479005 0.5 -569.044
0.575737 0.0474373 0.5 -559.296
0.58164 0.0469687 0.5 -549.851
0.587536 0.0464941 0.5 -540.427
0.593393 0.0460162 0.5 -530.766
0.599208 0.0455357 0.5 -521.072
0.60498 0.045053 0.5 -511.452
0.610706 0.0445687 0.5 -501.99
0.616408 0.0440814 0.5 -492.646
0.622117 0.043588 0.5 -483.583
0.627812 0.04309 0.5 -474.253
0.633463 0.0425903 0.5 -464.785
0.639069 0.0420895 0.5 -455.337
0.644626 0.0415881 0.5 -445.979
0.650134 0.0410868 0.5 -436.76
0.655639 0.0405812 0.5 -427.679
0.661165 0.0400689 0.5 -418.741
0.666665 0.039554 0.5 -409.544
0.672117 0.0390389 0.5 -400.289
0.677519 0.038524 0.5 -391.07
0.682868 0.0380099 0.5 -381.944
0.688165 0.037497 0.5 -372.919
0.693484 0.0369779 0.5 -363.993
0.698837 0.0364512 0.5 -355.024
0.704147 0.0359241 0.5 -345.875
0.709405 0.0353979 0.5 -336.717
0.714609 0.0348733 0.5 -327.606
0.719757 0.0343505 0.5 -318.585
0.724855 0.0338293 0.5 -309.641
0.729999 0.0332999 0.5 -300.768
0.73518 0.0327625 0.5 -291.718
0.740306 0.0322267 0.5 -282.508
0.745375 0.0316932 0.5 -273.282
0.750386 0.0311622 0.5 -264.094
0.755336 0.0306343 0.5 -254.986
0.76026 0.0301061 0.5 -245.91
0.765241 0.0295683 0.5 -236.845
0.770246 0.0290241 0.5 -227.544
0.775191 0.0284829 0.5 -218.122
0.780073 0.027945 0.5 -208.701
0.784891 0.0274108 0.5 -199.317
0.789645 0.0268807 0.5 -190.003
0.794414 0.0263459 0.5 -180.633
0.799254 0.0257999 0.5 -171.156
0.804082 0.0252514 0.5 -161.386
0.808843 0.0247071 0.5 -151.533
0.813536 0.0241673 0.5 -141.678
0.81816 0.0236326 0.5 -131.873
0.822721 0.0231023 0.5 -122.115
0.827366 0.0225594 0.5 -112.226
0.832084 0.0220045 0.5 -101.997
0.836729 0.0214548 0.5 -91.5683
0.841299 0.0209107 0.5 -81.1314
0.845793 0.0203728 0.5 -70.7038
0.85021 0.0198415 0.5 -60.3398
0.854677 0.0193015 0.5 -49.8
0.859239 0.0187469 0.5 -39.0053
0.863766 0.0181934 0.5 -27.8646
0.868209 0.0176469 0.5 -16.6789
0.872568 0.017108 0.5 -5.49695
0.87684 0.0165772 0.5 5.61379
0.881165 0.0160373 0.5 17.0018
0.885597 0.0154808 0.5 28.76
0.889995 0.0149253 0.5 40.9599
0.894296 0.0143788 0.5 53.2185
0.8985 0.013842 0.5 65.4391
0.902612 0.0133146 0.5 77.6303
0.90685 0.0127685 0.5 90.2388
0.911199 0.0122047 0.5 103.526
0.915436 0.0116524 0.5 117.059
0.919558 0.0111121 0.5 130.559
0.923564 0.0105848 0.5 143.972
0.92766 0.0100432 0.5 157.877
0.931889 0.00948105 0.5 172.441
0.936032 0.00892713 0.5 187.473
0.940034 0.00838932 0.5 202.394
0.943918 0.00786528 0.5 217.301
0.947957 0.00731753 0.5 232.942
0.952111 0.00675118 0.5 249.662
0.956082 0.0062066 0.5 266.437
0.959868 0.005685 0.5 282.981
0.963806 0.00514008 0.5 300.48
0.967884 0.00457263 0.5 319.232
0.971729 0.00403453 0.5 338.081
0.97552 0.00350184 0.5 357.297
0.979458 0.0029459 0.5 377.828
0.983267 0.00240536 0.5 398.516
0.98706 0.00186472 0.5 422.116
0.990882 0.00131704 0.5 442.098
0.994678 0.000770466 0.5 476.654
0.99832 0.00024378 0.5 479.82
0.00133235 0.00449653 0.5 3725.08
0.00576479 0.0125392 0.5 1726.88
0.0127073 0.018847 0.5 282.652
0.0207688 0.0238748 0.5 -333.478
0.0291543 0.0279559 0.5 -647.677
0.037672 0.0313759 0.5 -858.848
0.0464094 0.0343841 0.5 -972.434
0.0551576 0.0370177 0.5 -1062.39
0.0639069 0.0393539 0.5 -1120.36
0.0727041 0.0414595 0.5 -1157.98
0.081414 0.0433437 0.5 -1188.72
0.090183 0.0450639 0.5 -1207.72
0.098871 0.0466203 0.5 -1223.21
0.107395 0.0480148 0.5 -1230.58
0.116087 0.049318 0.5 -1238.09
0.124618 0.0504925 0.5 -1240.45
0.132994 0.0515502 0.5 -1242.06
0.141535 0.0525408 0.5 -1243.59
0.149928 0.053435 0.5 -1243.92
0.158135 0.0542362 0.5 -1243.01
0.166435 0.0549791 0.5 -1231.3
0.174718 0.0556571 0.5 -1210.43
0.182824 0.0562624 0.5 -1186.8
0.190865 0.0568083 0.5 -1166.73
0.198976 0.0573076 0.5 -1151
0.20712 0.0577564 0.5 -1142.65
0.215524 0.0581602 0.5 -1134.62
0.224086 0.0585239 0.5 -1109.73
0.231971 0.0588335 0.5 -1104.09
0.239768 0.0591111 0.5 -1106.36
0.246955 0.0592927 0.5 -1149.96
0.00133235 -0.00449653 0.5 3725.57
0.00576479 -0.0125392 0.5 1735.95
0.0127073 -0.018847 0.5 274.828
0.0207688 -0.0238748 0.5 -336.016
0.0291543 -0.0279559 0.5 -650.006
0.037672 -0.0313759 0.5 -848.311
0.0464094 -0.0343841 0.5 -981.436
0.0551576 -0.0370177 0.5 -1064.3
0.0639069 -0.0393539 0.5 -1118.6
0.0727041 -0.0414595 0.5 -1159.73
0.081414 -0.0433437 0.5 -1189.3
0.090183 -0.0450639 0.5 -1209.08
0.098871 -0.0466203 0.5 -1223.47
0.107395 -0.0480148 0.5 -1231.95
0.116087 -0.049318 0.5 -1238.51
0.124618 -0.0504925 0.5 -1241.74
0.132994 -0.0515502 0.5 -1242.44
0.141535 -0.0525408 0.5 -1244.76
0.149928 -0.053435 0.5 -1244.55
0.158135 -0.0542362 0.5 -1244.54
0.166435 -0.0549791 0.5 -1231.68
0.174718 -0.0556571 0.5 -1210.17
0.182824 -0.0562624 0.5 -1183.33
0.190865 -0.0568083 0.5 -1163.82
0.198976 -0.0573076 0.5 -1150.19
0.20712 -0.0577564 0.5 -1144.51
0.215524 -0.0581602 0.5 -1135.81
0.224086 -0.0585239 0.5 -1110.97
0.231971 -0.0588335 0.5 -1104.55
0.239768 -0.0591111 0.5 -1106.34
0.246955 -0.0592927 0.5 -1151.14
0.253478 -0.0594229 0.5 -1014.74
0.260394 -0.0595984 0.5 -1054.19
0.267845 -0.0597569 0.5 -1088.04
0.275233 -0.059862 0.5 -1072.59
0.282135 -0.059923 0.5 -1042.87
0.289403 -0.0599678 0.5 -1030.9
0.296942 -0.0599937 0.5 -1021.57
0.304465 -0.0599955 0.5 -1013.15
0.311708 -0.0599711 0.5 -1004.13
0.318744 -0.0599229 0.5 -990.582
0.325783 -0.0598535 0.5 -978.341
0.332827 -0.0597638 0.5 -966.615
0.339871 -0.0596549 0.5 -954.782
0.346848 -0.0595287 0.5 -943.24
0.353736 -0.0593859 0.5 -932.133
0.360596 -0.0592257 0.5 -920.608
0.367453 -0.0590487 0.5 -908.535
0.3743 -0.0588558 0.5 -896.611
0.381124 -0.0586486 0.5 -884.873
0.38787 -0.0584289 0.5 -874.277
0.394554 -0.0581963 0.5 -863.116
0.401228 -0.0579495 0.5 -851.446
0.407888 -0.0576896 0.5 -839.803
0.41453 -0.0574175 0.5 -828.424
0.421133 -0.0571349 0.5 -817.405
0.427675 -0.0568427 0.5 -806.888
0.434175 -0.0565398 0.5 -795.954
0.440657 -0.0562259 0.5 -784.662
0.447118 -0.0559019 0.5 -773.634
0.453553 -0.0555685 0.5 -762.619
0.459952 -0.0552271 0.5 -751.847
0.466305 -0.054878 0.5 -741.763
0.472621 -0.0545205 0.5 -731.202
0.478913 -0.0541543 0.5 -720.605
0.485178 -0.0537804 0.5 -709.85
0.491413 -0.0533994 0.5 -699.252
0.497615 -0.0530121 0.5 -688.906
0.503783 -0.0526186 0.5 -679.007
0.509921 -0.0522183 0.5 -669.119
0.51603 -0.0518112 0.5 -658.808
0.522108 -0.0513982 0.5 -648.451
0.528152 -0.05098 0.5 -638.214
0.534159 -0.0505573 0.5 -628.169
0.54014 -0.0501296 0.5 -618.398
0.546102 -0.0496961 0.5 -609.016
0.552038 -0.0492571 0.5 -599.187
0.557939 -0.0488136 0.5 -589.253
0.563803 -0.0483664 0.5 -579.39
0.569628 -0.047916 0.5 -569.644
0.575412 -0.047463 0.5 -560.114
0.58119 -0.0470047 0.5 -550.894
0.586964 -0.0465405 0.5 -541.653
0.5927 -0.0460731 0.5 -532.179
0.598397 -0.0456031 0.5 -522.699
0.604052 -0.045131 0.5 -513.28
0.609664 -0.0446572 0.5 -504.006
0.615243 -0.0441814 0.5 -494.882
0.620829 -0.0436999 0.5 -485.978
0.626413 -0.0432129 0.5 -476.899
0.631955 -0.0427242 0.5 -467.65
0.637454 -0.0422343 0.5 -458.419
0.642907 -0.0417437 0.5 -449.219
0.648313 -0.041253 0.5 -440.217
0.653694 -0.0407603 0.5 -431.273
0.659096 -0.0402614 0.5 -422.551
0.664496 -0.0397577 0.5 -413.63
0.669852 -0.0392536 0.5 -404.598
0.675159 -0.0387495 0.5 -395.583
0.680418 -0.0382459 0.5 -386.626
0.685626 -0.0377433 0.5 -377.808
0.690816 -0.0372389 0.5 -369.03
0.696038 -0.0367272 0.5 -360.384
0.701263 -0.0362109 0.5 -351.511
0.706438 -0.0356954 0.5 -342.544
0.711561 -0.035181 0.5 -333.592
0.716633 -0.0346682 0.5 -324.686
0.72165 -0.0341574 0.5 -315.905
0.726654 -0.0336446 0.5 -307.135
0.731704 -0.0331235 0.5 -298.442
0.736758 -0.032598 0.5 -289.501
0.741759 -0.0320742 0.5 -280.469
0.746705 -0.0315527 0.5 -271.458
0.751594 -0.0310337 0.5 -262.468
0.756425 -0.0305178 0.5 -253.607
0.761255 -0.029999 0.5 -244.712
0.766142 -0.0294707 0.5 -235.827
0.771031 -0.0289385 0.5 -226.68
0.775861 -0.0284092 0.5 -217.462
0.780632 -0.0278832 0.5 -208.256
0.785341 -0.0273608 0.5 -199.081
0.789989 -0.0268423 0.5 -189.982
0.79466 -0.0263184 0.5 -180.824
0.799401 -0.0257833 0.5 -171.545
0.804125 -0.0252465 0.5 -161.966
0.808785 -0.0247137 0.5 -152.328
0.81338 -0.0241853 0.5 -142.692
0.817908 -0.0236617 0.5 -133.104
0.822369 -0.0231434 0.5 -123.567
0.826908 -0.0226131 0.5 -113.919
0.831528 -0.0220701 0.5 -103.952
0.836084 -0.0215313 0.5 -93.7617
0.840568 -0.0209979 0.5 -83.543
0.844979 -0.0204704 0.5 -73.3405
0.849317 -0.0199491 0.5 -63.1963
0.853667 -0.0194238 0.5 -52.9349
0.858113 -0.0188842 0.5 -42.4849
0.862564 -0.0183407 0.5 -31.6409
0.866936 -0.0178038 0.5 -20.6967
0.871227 -0.0172741 0.5 -9.75562
0.875436 -0.016752 0.5 1.13657
0.879628 -0.0162295 0.5 12.1577
0.88393 -0.0156905 0.5 23.4486
0.88827 -0.0151435 0.5 35.3095
0.892518 -0.014605 0.5 47.2868
0.896674 -0.0140755 0.5 59.2665
0.900735 -0.0135557 0.5 71.194
0.904824 -0.01303 0.5 83.3864
0.909034 -0.0124858 0.5 95.9664
0.913238 -0.0119394 0.5 109.15
0.917332 -0.0114042 0.5 122.393
0.921316 -0.010881 0.5 135.562
0.925241 -0.0103633 0.5 148.831
0.929306 -0.00982488 0.5 162.604
0.933445 -0.00927338 0.5 177.197
0.937451 -0.00873681 0.5 191.904
0.941321 -0.00821597 0.5 206.479
0.945168 -0.00769601 0.5 221.362
0.949167 -0.00715299 0.5 236.913
0.953183 -0.00660441 0.5 253.399
0.957024 -0.006077 0.5 269.777
0.960743 -0.00556416 0.5 286.182
0.964631 -0.00502557 0.5 303.496
0.968598 -0.00447292 0.5 322.064
0.972318 -0.00395183 0.5 340.468
0.976051 -0.00342699 0.5 359.491
0.979926 -0.00287974 0.5 379.859
0.983612 -0.00235633 0.5 400.124
0.987331 -0.00182587 0.5 423.371
0.991079 -0.00128868 0.5 443.143
0.994786 -0.000754822 0.5 477.183
0.998359 -0.000238135 0.5 480.11
