# wallShearStress  FACE_DATA 341
#  x  y  z  wallShearStress_x  wallShearStress_y  wallShearStress_z  
0.253551 0.0594249 0.5 -18.1545 -0.451046 3.63736e-18
0.260625 0.059604 0.5 -20.3115 -0.510743 -3.80955e-18
0.268301 0.0597641 0.5 -20.0391 -0.342235 3.33836e-18
0.275825 0.0598682 0.5 -18.8904 -0.194398 -1.01042e-18
0.282831 0.059928 0.5 -18.4169 -0.138936 -9.12193e-19
0.290299 0.0599719 0.5 -18.3963 -0.087401 8.34307e-36
0.298014 0.0599954 0.5 -18.3246 -0.0312403 -2.09573e-19
0.305661 0.0599931 0.5 -18.1425 0.0354307 -4.26973e-19
0.313016 0.0599637 0.5 -17.8604 0.098991 -8.88693e-19
0.3202 0.0599102 0.5 -17.6238 0.151869 8.74273e-19
0.327394 0.0598346 0.5 -17.4467 0.201914 4.24095e-22
0.334592 0.0597382 0.5 -17.2755 0.248105 1.70537e-18
0.341788 0.059622 0.5 -17.1239 0.291641 -1.6838e-18
0.348891 0.0594882 0.5 -16.9846 0.334826 -9.98292e-24
0.355903 0.0593371 0.5 -16.8195 0.375968 -8.28524e-22
0.362912 0.0591677 0.5 -16.648 0.41353 8.0752e-22
0.369915 0.058981 0.5 -16.5029 0.449307 -6.57841e-18
0.376908 0.0587783 0.5 -16.3642 0.482545 4.58443e-37
0.383848 0.0585616 0.5 -16.2289 0.514085 -3.25145e-18
0.39071 0.0583318 0.5 -16.0769 0.545966 -1.03438e-23
0.397536 0.0580877 0.5 -15.9163 0.574974 -7.87095e-22
0.404349 0.0578293 0.5 -15.7641 0.602007 3.16575e-18
0.411146 0.0575577 0.5 -15.6241 0.627157 -3.12999e-18
0.417921 0.0572738 0.5 -15.5023 0.651159 3.99668e-37
0.424635 0.05698 0.5 -15.3912 0.675764 -6.20034e-18
0.431287 0.0566758 0.5 -15.2636 0.699693 -6.13836e-18
0.437919 0.0563599 0.5 -15.1276 0.720813 1.10154e-22
0.444529 0.056033 0.5 -15.0037 0.740947 -6.00054e-18
0.451115 0.055696 0.5 -14.892 0.760029 -3.76158e-37
0.457672 0.0553498 0.5 -14.7964 0.778499 5.87892e-18
0.464179 0.0549959 0.5 -14.6991 0.797476 -2.85993e-21
0.47064 0.0546337 0.5 -14.5852 0.815346 1.15915e-17
0.477077 0.0542621 0.5 -14.4673 0.831274 5.72793e-18
0.483487 0.0538822 0.5 -14.3604 0.846586 2.76811e-21
0.489866 0.0534947 0.5 -14.263 0.861111 -2.09783e-23
0.496211 0.0531004 0.5 -14.1759 0.874922 -1.11109e-17
0.50252 0.0526998 0.5 -14.0933 0.889472 -1.35385e-21
0.508797 0.0522921 0.5 -13.9961 0.903699 5.44643e-18
0.515045 0.0518774 0.5 -13.8928 0.915926 5.38876e-18
0.52126 0.0514563 0.5 -13.7959 0.927548 5.32874e-18
0.52744 0.0510296 0.5 -13.7063 0.938454 5.27474e-18
0.533582 0.0505981 0.5 -13.6253 0.948876 6.71442e-35
0.539695 0.0501616 0.5 -13.5538 0.959698 1.41059e-37
0.545788 0.0497191 0.5 -13.472 0.971196 5.09157e-18
0.551854 0.0492707 0.5 -13.3792 0.980665 -5.0369e-18
0.557885 0.0488177 0.5 -13.2887 0.989376 4.98124e-18
0.563876 0.0483607 0.5 -13.2053 0.99769 -1.78675e-36
0.569827 0.0479005 0.5 -13.1295 1.0057 1.1806e-21
0.575737 0.0474373 0.5 -13.0633 1.01366 -1.18829e-21
0.58164 0.0469687 0.5 -12.9972 1.02263 -6.11257e-37
0.587536 0.0464941 0.5 -12.9186 1.03071 -4.67251e-18
0.593393 0.0460162 0.5 -12.8357 1.03743 -1.49253e-22
0.599208 0.0455357 0.5 -12.7576 1.04391 -1.95572e-34
0.60498 0.045053 0.5 -12.6855 1.05022 3.49949e-34
0.610706 0.0445687 0.5 -12.6185 1.05622 1.08155e-21
0.616408 0.0440814 0.5 -12.5596 1.06269 1.28406e-22
0.622117 0.043588 0.5 -12.493 1.0698 -4.29703e-18
0.627812 0.04309 0.5 -12.4155 1.0752 -4.24478e-18
0.633463 0.0425903 0.5 -12.3397 1.08011 8.38621e-18
0.639069 0.0420895 0.5 -12.2696 1.0849 8.28419e-18
0.644626 0.0415881 0.5 -12.2052 1.08954 -4.09233e-18
0.650134 0.0410868 0.5 -12.1476 1.09414 -1.70447e-37
0.655639 0.0405812 0.5 -12.096 1.09948 -3.92708e-18
0.661165 0.0400689 0.5 -12.0358 1.10509 -7.69592e-18
0.666665 0.039554 0.5 -11.9689 1.10929 4.70198e-37
0.672117 0.0390389 0.5 -11.9062 1.11347 9.03384e-22
0.677519 0.038524 0.5 -11.8502 1.11777 -9.11907e-22
0.682868 0.0380099 0.5 -11.8008 1.12216 -1.59684e-22
0.688165 0.037497 0.5 -11.7607 1.127 3.59122e-18
0.693484 0.0369779 0.5 -11.7279 1.13314 -5.52953e-35
0.698837 0.0364512 0.5 -11.6835 1.13885 8.13378e-22
0.704147 0.0359241 0.5 -11.6272 1.14271 1.36954e-22
0.709405 0.0353979 0.5 -11.5675 1.14583 -3.26577e-18
0.714609 0.0348733 0.5 -11.5078 1.14845 3.21011e-18
0.719757 0.0343505 0.5 -11.4492 1.15065 7.59686e-22
0.724855 0.0338293 0.5 -11.396 1.153 -3.09359e-18
0.729999 0.0332999 0.5 -11.34 1.156 -1.53748e-22
0.73518 0.0327625 0.5 -11.2731 1.15811 -2.86943e-18
0.740306 0.0322267 0.5 -11.2028 1.1593 -6.85962e-22
0.745375 0.0316932 0.5 -11.1353 1.16038 2.74941e-18
0.750386 0.0311622 0.5 -11.0713 1.16137 2.68771e-18
0.755336 0.0306343 0.5 -11.0107 1.16221 -2.62661e-18
0.76026 0.0301061 0.5 -10.9557 1.16342 2.5298e-18
0.765241 0.0295683 0.5 -10.8963 1.16527 -2.15821e-35
0.770246 0.0290241 0.5 -10.8266 1.16592 5.78608e-35
0.775191 0.0284829 0.5 -10.7557 1.16598 1.17647e-34
0.780073 0.027945 0.5 -10.6877 1.16599 2.16151e-36
0.784891 0.0274108 0.5 -10.6225 1.16589 2.51513e-22
0.789645 0.0268807 0.5 -10.5608 1.16576 -2.03913e-18
0.794414 0.0263459 0.5 -10.5022 1.16611 1.89963e-18
0.799254 0.0257999 0.5 -10.4349 1.16666 1.78353e-18
0.804082 0.0252514 0.5 -10.3588 1.16572 -9.12213e-35
0.808843 0.0247071 0.5 -10.2839 1.16446 1.62373e-18
0.813536 0.0241673 0.5 -10.2124 1.16312 -3.76018e-22
0.81816 0.0236326 0.5 -10.1442 1.16165 2.91097e-18
0.822721 0.0231023 0.5 -10.0819 1.16044 -1.36346e-18
0.827366 0.0225594 0.5 -10.0166 1.15993 -1.52504e-22
0.832084 0.0220045 0.5 -9.93835 1.15837 -2.20599e-18
0.836729 0.0214548 0.5 -9.85666 1.15578 1.00597e-18
0.841299 0.0209107 0.5 -9.77809 1.15307 -9.0619e-19
0.845793 0.0203728 0.5 -9.70286 1.15019 -8.03051e-19
0.85021 0.0198415 0.5 -9.63258 1.14737 2.93874e-38
0.854677 0.0193015 0.5 -9.56499 1.14523 -1.10616e-18
0.859239 0.0187469 0.5 -9.48559 1.14289 -6.0078e-23
0.863766 0.0181934 0.5 -9.39711 1.13888 3.14334e-19
0.868209 0.0176469 0.5 -9.31091 1.1347 3.12042e-23
0.872568 0.017108 0.5 -9.22842 1.13045 1.9515e-39
0.87684 0.0165772 0.5 -9.14988 1.12617 -0
0.881165 0.0160373 0.5 -9.07304 1.12246 1.43493e-42
0.885597 0.0154808 0.5 -8.98243 1.11843 -4.85058e-23
0.889995 0.0149253 0.5 -8.88134 1.11239 4.95573e-23
0.894296 0.0143788 0.5 -8.78444 1.10623 8.62199e-23
0.8985 0.013842 0.5 -8.69176 1.09987 7.96441e-19
0.902612 0.0133146 0.5 -8.60734 1.09387 -9.64719e-19
0.90685 0.0127685 0.5 -8.51841 1.0886 1.3584e-22
0.911199 0.0122047 0.5 -8.40959 1.08153 -1.21929e-18
0.915436 0.0116524 0.5 -8.29578 1.07286 2.83202e-18
0.919558 0.0111121 0.5 -8.18774 1.06412 -1.04272e-22
0.923564 0.0105848 0.5 -8.08651 1.05536 1.84363e-18
0.92766 0.0100432 0.5 -7.98559 1.04718 -1.27418e-22
0.931889 0.00948105 0.5 -7.86263 1.03769 -2.06844e-18
0.936032 0.00892713 0.5 -7.72732 1.02556 -2.32613e-18
0.940034 0.00838932 0.5 -7.5963 1.01305 1.64694e-22
0.943918 0.00786528 0.5 -7.47445 1.00077 2.86264e-18
0.947957 0.00731753 0.5 -7.34058 0.98848 -2.77315e-18
0.952111 0.00675118 0.5 -7.17727 0.972808 9.40395e-38
0.956082 0.0062066 0.5 -7.00838 0.954934 -2.18478e-22
0.959868 0.005685 0.5 -6.85275 0.937493 -1.93456e-18
0.963806 0.00514008 0.5 -6.68708 0.919777 3.62895e-18
0.967884 0.00457263 0.5 -6.4811 0.897694 -4.05647e-18
0.971729 0.00403453 0.5 -6.26703 0.872316 -4.59342e-18
0.97552 0.00350184 0.5 -6.06279 0.846906 -4.66587e-18
0.979458 0.0029459 0.5 -5.83605 0.820731 1.49328e-22
0.983267 0.00240536 0.5 -5.53052 0.781835 -2.78802e-18
0.98706 0.00186472 0.5 -5.32092 0.755554 -1.587e-22
0.990882 0.00131704 0.5 -4.77672 0.683516 -6.08271e-18
0.994678 0.000770466 0.5 -4.90323 0.70165 1.80096e-22
0.99832 0.00024378 0.5 -2.19346 0.798674 -3.68386e-21
0.00133235 0.00449653 0.5 -19.2608 -65.473 2.61121e-39
0.00576479 0.0125392 0.5 -54.176 -63.1651 -1.50463e-36
0.0127073 0.018847 0.5 -45.1722 -33.2246 -2.43632e-17
0.0207688 0.0238748 0.5 -34.7943 -19.0494 -5.67898e-17
0.0291543 0.0279559 0.5 -28.1643 -12.4804 -7.97627e-21
0.037672 0.0313759 0.5 -23.8399 -8.9286 3.07406e-22
0.0464094 0.0343841 0.5 -20.6752 -6.69816 4.30722e-17
0.0551576 0.0370177 0.5 -18.4595 -5.27023 4.78125e-17
0.0639069 0.0393539 0.5 -16.642 -4.23487 1.01023e-16
0.0727041 0.0414595 0.5 -15.2348 -3.4834 -5.22349e-17
0.081414 0.0433437 0.5 -14.0614 -2.91237 2.76174e-17
0.090183 0.0450639 0.5 -13.0827 -2.46169 -2.70922e-17
0.098871 0.0466203 0.5 -12.2149 -2.09557 -1.06527e-21
0.107395 0.0480148 0.5 -11.4946 -1.80655 -8.81619e-22
0.116087 0.049318 0.5 -10.8527 -1.56093 8.66867e-22
0.124618 0.0504925 0.5 -10.2835 -1.35557 9.24163e-22
0.132994 0.0515502 0.5 -9.83227 -1.19182 2.97153e-17
0.141535 0.0525408 0.5 -9.43436 -1.04854 2.92553e-17
0.149928 0.053435 0.5 -9.10627 -0.927423 1.54531e-17
0.158135 0.0542362 0.5 -8.92177 -0.830498 -4.6177e-23
0.166435 0.0549791 0.5 -9.48967 -0.802362 -1.49758e-17
0.174718 0.0556571 0.5 -11.0578 -0.85034 -1.93957e-37
0.182824 0.0562624 0.5 -13.2624 -0.930512 -1.50839e-17
0.190865 0.0568083 0.5 -16.0664 -1.0281 -4.52297e-22
0.198976 0.0573076 0.5 -18.7876 -1.09121 1.43493e-41
0.20712 0.0577564 0.5 -20.4976 -1.05683 2.6853e-34
0.215524 0.0581602 0.5 -20.8657 -0.92598 -6.66837e-18
0.224086 0.0585239 0.5 -20.7859 -0.835424 -6.67874e-18
0.231971 0.0588335 0.5 -20.8825 -0.791756 7.69409e-18
0.239768 0.0591111 0.5 -21.4031 -0.71996 1.06127e-22
0.246955 0.0592927 0.5 -19.1094 -0.277255 -1.79215e-22
0.00133235 -0.00449653 0.5 -19.2326 65.3681 0
0.00576479 -0.0125392 0.5 -53.868 62.7832 -1.48971e-16
0.0127073 -0.018847 0.5 -44.6951 32.8587 4.7428e-17
0.0207688 -0.0238748 0.5 -34.6629 18.963 2.86236e-17
0.0291543 -0.0279559 0.5 -28.0293 12.412 7.64353e-34
0.037672 -0.0313759 0.5 -23.8296 8.92484 7.79454e-39
0.0464094 -0.0343841 0.5 -20.798 6.74226 -4.1613e-41
0.0551576 -0.0370177 0.5 -18.4137 5.25199 3.76158e-36
0.0639069 -0.0393539 0.5 -16.657 4.23812 -5.04326e-17
0.0727041 -0.0414595 0.5 -15.2693 3.49238 5.23145e-17
0.081414 -0.0433437 0.5 -14.0871 2.91765 -1.68307e-21
0.090183 -0.0450639 0.5 -13.0914 2.46333 5.42459e-17
0.098871 -0.0466203 0.5 -12.2324 2.09839 5.83064e-17
0.107395 -0.0480148 0.5 -11.5063 1.80813 2.88353e-17
0.116087 -0.049318 0.5 -10.8677 1.56264 -1.50463e-36
0.124618 -0.0504925 0.5 -10.2934 1.3566 -3.02962e-17
0.132994 -0.0515502 0.5 -9.84938 1.19357 -5.94519e-17
0.141535 -0.0525408 0.5 -9.45271 1.05049 -2.92809e-17
0.149928 -0.053435 0.5 -9.12727 0.92966 -9.43768e-22
0.158135 -0.0542362 0.5 -9.01845 0.839971 -1.53235e-17
0.166435 -0.0549791 0.5 -9.78042 0.82749 1.49803e-17
0.174718 -0.0556571 0.5 -11.5021 0.884532 4.52188e-22
0.182824 -0.0562624 0.5 -13.9806 0.981066 -9.19303e-22
0.190865 -0.0568083 0.5 -16.5768 1.06216 4.51062e-22
0.198976 -0.0573076 0.5 -18.7593 1.09116 1.43752e-17
0.20712 -0.0577564 0.5 -20.1529 1.03988 -7.15211e-18
0.215524 -0.0581602 0.5 -20.5648 0.912977 6.67486e-18
0.224086 -0.0585239 0.5 -20.6788 0.831381 6.68677e-18
0.231971 -0.0588335 0.5 -20.9314 0.793452 1.17533e-22
0.239768 -0.0591111 0.5 -21.5424 0.723585 -1.03698e-22
0.246955 -0.0592927 0.5 -19.2248 0.281398 2.40823e-18
0.253478 -0.0594229 0.5 -18.2659 0.456812 -3.03805e-23
0.260394 -0.0595984 0.5 -20.3899 0.515328 7.24855e-39
0.267845 -0.0597569 0.5 -20.1423 0.354841 2.09122e-22
0.275233 -0.059862 0.5 -18.9774 0.200739 -2.48945e-22
0.282135 -0.059923 0.5 -18.4493 0.143686 -2.28498e-22
0.289403 -0.0599678 0.5 -18.4177 0.0932823 2.15795e-22
0.296942 -0.0599937 0.5 -18.3294 0.0393752 -1.85952e-38
0.304465 -0.0599955 0.5 -18.1733 -0.0244838 6.61216e-39
0.311708 -0.0599711 0.5 -17.9018 -0.089776 1.81798e-18
0.318744 -0.0599229 0.5 -17.6421 -0.141989 1.26366e-37
0.325783 -0.0598535 0.5 -17.4663 -0.191837 3.35868e-35
0.332827 -0.0597638 0.5 -17.302 -0.238068 1.74824e-18
0.339871 -0.0596549 0.5 -17.1445 -0.281209 3.4541e-18
0.346848 -0.0595287 0.5 -17.0008 -0.322838 8.54045e-22
0.353736 -0.0593859 0.5 -16.8521 -0.36464 -3.46239e-18
0.360596 -0.0592257 0.5 -16.6874 -0.402683 8.40098e-22
0.367453 -0.0590487 0.5 -16.533 -0.438117 3.24681e-23
0.3743 -0.0588558 0.5 -16.3955 -0.471439 -3.33899e-18
0.381124 -0.0586486 0.5 -16.2838 -0.503357 8.14241e-22
0.38787 -0.0584289 0.5 -16.1656 -0.535776 6.65914e-18
0.394554 -0.0581963 0.5 -16.0238 -0.565861 -7.99336e-37
0.401228 -0.0579495 0.5 -15.8847 -0.593803 -6.50527e-18
0.407888 -0.0576896 0.5 -15.7608 -0.620301 7.90465e-22
0.41453 -0.0574175 0.5 -15.6498 -0.64529 5.75992e-37
0.421133 -0.0571349 0.5 -15.5503 -0.669215 -3.16564e-18
0.427675 -0.0568427 0.5 -15.442 -0.694161 -7.6538e-22
0.434175 -0.0565398 0.5 -15.3173 -0.716725 7.67324e-22
0.440657 -0.0562259 0.5 -15.2012 -0.73804 -9.87415e-37
0.447118 -0.0559019 0.5 -15.0934 -0.758067 6.10779e-18
0.453553 -0.0555685 0.5 -14.993 -0.776681 7.32715e-22
0.459952 -0.0552271 0.5 -14.9085 -0.795158 6.00049e-18
0.466305 -0.054878 0.5 -14.8138 -0.814554 5.96625e-18
0.472621 -0.0545205 0.5 -14.7045 -0.831964 -1.18041e-17
0.478913 -0.0541543 0.5 -14.5937 -0.847816 1.04835e-22
0.485178 -0.0537804 0.5 -14.4892 -0.862564 -5.77866e-18
0.491413 -0.0533994 0.5 -14.394 -0.876645 5.72087e-18
0.497615 -0.0530121 0.5 -14.3108 -0.890284 -6.86824e-22
0.503783 -0.0526186 0.5 -14.2281 -0.905141 1.37085e-21
0.509921 -0.0522183 0.5 -14.1293 -0.918745 -1.11164e-17
0.51603 -0.0518112 0.5 -14.0273 -0.930677 5.49858e-18
0.522108 -0.0513982 0.5 -13.9343 -0.942211 1.08817e-17
0.528152 -0.05098 0.5 -13.8502 -0.953229 5.38655e-18
0.534159 -0.0505573 0.5 -13.775 -0.963778 6.46059e-22
0.54014 -0.0501296 0.5 -13.7094 -0.974923 -9.97071e-24
0.546102 -0.0496961 0.5 -13.6319 -0.986562 5.20089e-18
0.552038 -0.0492571 0.5 -13.5437 -0.996159 5.14633e-18
0.557939 -0.0488136 0.5 -13.4613 -1.00541 6.16305e-22
0.563803 -0.0483664 0.5 -13.3861 -1.01428 -1.23015e-21
0.569628 -0.047916 0.5 -13.318 -1.02278 4.90062e-22
0.575412 -0.047463 0.5 -13.2592 -1.03122 -5.97962e-22
0.58119 -0.0470047 0.5 -13.1996 -1.04038 -4.83331e-18
0.586964 -0.0465405 0.5 -13.1265 -1.0489 1.01017e-23
0.5927 -0.0460731 0.5 -13.0479 -1.05605 1.15467e-21
0.598397 -0.0456031 0.5 -12.9728 -1.06285 -4.67865e-18
0.604052 -0.045131 0.5 -12.9027 -1.06934 -4.62791e-18
0.609664 -0.0446572 0.5 -12.8374 -1.07554 4.70198e-37
0.615243 -0.0441814 0.5 -12.7789 -1.08179 2.16291e-36
0.620829 -0.0436999 0.5 -12.7156 -1.08886 8.80792e-18
0.626413 -0.0432129 0.5 -12.6403 -1.09471 -3.19734e-36
0.631955 -0.0427242 0.5 -12.5641 -1.09974 -4.30142e-18
0.637454 -0.0422343 0.5 -12.4916 -1.10444 0
0.642907 -0.0417437 0.5 -12.4255 -1.10906 4.20012e-18
0.648313 -0.041253 0.5 -12.3633 -1.11336 -4.15224e-18
0.653694 -0.0407603 0.5 -12.3083 -1.1179 -1.30729e-22
0.659096 -0.0402614 0.5 -12.2484 -1.12333 4.77697e-22
0.664496 -0.0397577 0.5 -12.1779 -1.12746 3.90358e-18
0.669852 -0.0392536 0.5 -12.107 -1.131 -3.85185e-18
0.675159 -0.0387495 0.5 -12.0397 -1.13437 -6.02323e-35
0.680418 -0.0382459 0.5 -11.977 -1.13766 -3.74857e-18
0.685626 -0.0377433 0.5 -11.9175 -1.14069 3.10434e-22
0.690816 -0.0372389 0.5 -11.8639 -1.14407 -3.60391e-18
0.696038 -0.0367272 0.5 -11.8046 -1.14814 -9.40395e-38
0.701263 -0.0362109 0.5 -11.7355 -1.15091 4.02301e-34
0.706438 -0.0356954 0.5 -11.6665 -1.1532 3.37432e-18
0.711561 -0.035181 0.5 -11.6008 -1.15533 -3.3193e-18
0.716633 -0.0346682 0.5 -11.5392 -1.1574 -3.26414e-18
0.72165 -0.0341574 0.5 -11.4805 -1.15925 -3.21063e-18
0.726654 -0.0336446 0.5 -11.4272 -1.16149 3.10273e-18
0.731704 -0.0331235 0.5 -11.3678 -1.16434 1.08143e-23
0.736758 -0.032598 0.5 -11.2987 -1.16586 1.10756e-23
0.741759 -0.0320742 0.5 -11.2301 -1.16701 6.98051e-22
0.746705 -0.0315527 0.5 -11.1642 -1.16797 -6.83232e-22
0.751594 -0.0310337 0.5 -11.1025 -1.16893 6.68378e-22
0.756425 -0.0305178 0.5 -11.0438 -1.16974 -6.53572e-22
0.761255 -0.029999 0.5 -10.9896 -1.17094 3.17477e-22
0.766142 -0.0294707 0.5 -10.9289 -1.17265 2.43057e-18
0.771031 -0.0289385 0.5 -10.8593 -1.17306 -2.3636e-18
0.775861 -0.0284092 0.5 -10.7903 -1.17318 -2.86136e-22
0.780632 -0.0278832 0.5 -10.7239 -1.17317 4.45188e-18
0.785341 -0.0273608 0.5 -10.6605 -1.17306 -2.15551e-18
0.789989 -0.0268423 0.5 -10.6007 -1.17296 3.76158e-37
0.79466 -0.0263184 0.5 -10.5432 -1.17335 0
0.799401 -0.0257833 0.5 -10.4763 -1.17379 -1.64569e-37
0.804125 -0.0252465 0.5 -10.4015 -1.17285 1.74801e-18
0.808785 -0.0247137 0.5 -10.3285 -1.1717 4.06974e-22
0.81338 -0.0241853 0.5 -10.2588 -1.17045 -1.58459e-18
0.817908 -0.0236617 0.5 -10.1919 -1.16901 -1.49954e-18
0.822369 -0.0231434 0.5 -10.131 -1.16783 1.41392e-18
0.826908 -0.0226131 0.5 -10.0685 -1.16733 -1.58002e-22
0.831528 -0.0220701 0.5 -9.99294 -1.16603 2.29301e-18
0.836084 -0.0215313 0.5 -9.91243 -1.16351 -1.35135e-22
0.840568 -0.0209979 0.5 -9.83524 -1.16093 5.02225e-42
0.844979 -0.0204704 0.5 -9.76153 -1.1582 -9.6374e-23
0.849317 -0.0199491 0.5 -9.69163 -1.15539 9.80364e-23
0.853667 -0.0194238 0.5 -9.62672 -1.15316 1.49064e-35
0.858113 -0.0188842 0.5 -9.5528 -1.15126 0
0.862564 -0.0183407 0.5 -9.46688 -1.1476 1.76324e-38
0.866936 -0.0178038 0.5 -9.3818 -1.14356 -2.41772e-19
0.871227 -0.0172741 0.5 -9.30038 -1.13948 0
0.875436 -0.016752 0.5 -9.22179 -1.13522 1.37958e-20
0.879628 -0.0162295 0.5 -9.14905 -1.13148 -1.45802e-19
0.88393 -0.0156905 0.5 -9.06642 -1.12808 2.7049e-19
0.88827 -0.0151435 0.5 -8.96925 -1.12272 2.35099e-38
0.892518 -0.014605 0.5 -8.87286 -1.11678 -7.83679e-23
0.896674 -0.0140755 0.5 -8.78074 -1.11068 1.78241e-22
0.900735 -0.0135557 0.5 -8.6933 -1.10446 -1.00401e-22
0.904824 -0.01303 0.5 -8.61149 -1.09898 1.01282e-18
0.909034 -0.0124858 0.5 -8.51465 -1.0934 2.27942e-18
0.913238 -0.0119394 0.5 -8.40195 -1.08518 1.62489e-22
0.917332 -0.0114042 0.5 -8.293 -1.07667 1.53162e-18
0.921316 -0.010881 0.5 -8.1881 -1.06779 1.25214e-22
0.925241 -0.0103633 0.5 -8.0915 -1.0593 -1.2228e-22
0.929306 -0.00982488 0.5 -7.98379 -1.05111 1.95391e-18
0.933445 -0.00927338 0.5 -7.85317 -1.04013 -2.1986e-18
0.937451 -0.00873681 0.5 -7.72096 -1.02797 -2.46244e-18
0.941321 -0.00821597 0.5 -7.59319 -1.0154 2.74412e-18
0.945168 -0.00769601 0.5 -7.4726 -1.00325 -2.87205e-18
0.949167 -0.00715299 0.5 -7.33162 -0.990492 -2.91708e-18
0.953183 -0.00660441 0.5 -7.16545 -0.973853 3.25834e-18
0.957024 -0.006077 0.5 -7.00109 -0.956123 7.26186e-18
0.960743 -0.00556416 0.5 -6.84966 -0.938903 -1.88079e-37
0.964631 -0.00502557 0.5 -6.6792 -0.921084 -3.76158e-37
0.968598 -0.00447292 0.5 -6.47001 -0.897995 -4.2306e-18
0.972318 -0.00395183 0.5 -6.2637 -0.873209 2.38949e-18
0.976051 -0.00342699 0.5 -6.06102 -0.84802 1.47195e-22
0.979926 -0.00287974 0.5 -5.83087 -0.821289 -4.94325e-18
0.983612 -0.00235633 0.5 -5.53113 -0.782764 5.78189e-18
0.987331 -0.00182587 0.5 -5.32485 -0.756941 -5.41599e-18
0.991079 -0.00128868 0.5 -4.77992 -0.684503 1.11354e-23
0.994786 -0.000754822 0.5 -4.91702 -0.703983 6.23444e-18
0.998359 -0.000238135 0.5 -2.21316 -0.806727 -3.6886e-18
