/*--------------------------------*- C++ -*----------------------------------*\
  =========                 |
  \\      /  F ield         | OpenFOAM: The Open Source CFD Toolbox
   \\    /   O peration     | Website:  https://openfoam.org
    \\  /    A nd           | Version:  7
     \\/     M anipulation  |
\*---------------------------------------------------------------------------*/
FoamFile
{
    version     2.0;
    format      ascii;
    class       surfaceScalarField;
    location    "1";
    object      phi;
}
// * * * * * * * * * * * * * * * * * * * * * * * * * * * * * * * * * * * * * //

dimensions      [0 3 -1 0 0 0 0];

internalField   nonuniform List<scalar> 
304702
(
29.1783
-0.13679
-29.1716
29.1851
-0.140058
29.192
-0.143358
29.199
-0.146767
29.2061
-0.150261
29.2133
-0.153845
29.2207
-0.157515
29.2281
-0.161274
29.2356
-0.165125
29.2433
-0.169068
29.251
-0.173111
29.2589
-0.17727
29.267
-0.18153
29.2752
-0.185901
29.2836
-0.190371
29.2922
-0.194963
29.3009
-0.199656
29.3099
-0.20448
29.3189
-0.209411
29.3282
-0.214478
29.3377
-0.219658
29.3473
-0.224982
29.3571
-0.230427
29.3671
-0.236019
29.3773
-0.241744
29.3877
-0.247619
29.3983
-0.25364
29.409
-0.259815
29.42
-0.266145
29.4311
-0.272636
29.4424
-0.279293
29.454
-0.286119
29.4657
-0.29312
29.4776
-0.3003
29.4897
-0.307663
29.502
-0.315216
29.5145
-0.322963
29.5272
-0.33091
29.54
-0.339062
29.5531
-0.347424
29.5663
-0.356003
29.5798
-0.364806
29.5934
-0.373837
29.6072
-0.383104
29.6211
-0.392614
29.6352
-0.402373
29.6495
-0.412389
29.664
-0.42267
29.6786
-0.433223
29.6933
-0.444057
29.7082
-0.455181
29.7231
-0.466601
29.7382
-0.478333
29.7534
-0.490373
29.7687
-0.502759
29.7841
-0.515445
29.7995
-0.528551
29.8149
-0.541885
29.8301
-0.555382
29.8459
-0.570273
29.8614
-0.58443
29.8751
-0.597809
29.8916
-0.616023
29.9053
-0.629017
29.9224
-0.649086
29.9392
-0.665743
29.9559
-0.682502
29.9684
-0.696634
29.985
-0.719454
30.0021
-0.738611
30.0157
-0.755259
30.0326
-0.778199
30.0459
-0.796186
30.0618
-0.819901
30.0718
-0.837014
30.0872
-0.865219
30.103
-0.888648
30.1175
-0.912449
30.1318
-0.93794
30.1384
-0.955835
30.1513
-0.989701
30.1631
-1.0165
30.1717
-1.04302
30.1743
-1.06532
30.1883
-1.1086
30.1939
-1.13296
30.1918
-1.157
30.1999
-1.20229
30.2044
-1.23446
30.2057
-1.26829
30.2036
-1.30311
30.2015
-1.34294
30.1966
-1.38145
30.1911
-1.42374
30.1826
-1.46521
30.1728
-1.50994
30.1597
-1.55468
30.144
-1.60186
30.1264
-1.65141
30.1066
-1.70317
30.0841
-1.75654
30.0584
-1.81123
30.0288
-1.86813
29.9963
-1.92777
29.9613
-1.99095
29.9225
-2.05501
29.8795
-2.12155
29.8325
-2.19071
29.781
-2.26227
29.7245
-2.33602
29.6624
-2.41244
29.5919
-2.48928
29.5194
-2.57632
29.4353
-2.65796
29.3477
-2.75159
29.2525
-2.8434
29.1507
-2.9444
29.0407
-3.04676
28.9213
-3.15338
28.795
-3.26697
28.6574
-3.38213
28.5133
-3.50695
28.3567
-3.63216
28.1921
-3.76729
28.015
-3.9051
27.8286
-4.0514
27.6295
-4.2031
27.4183
-4.36094
27.1831
-4.52234
26.9529
-4.6983
26.7011
-4.88192
26.4331
-5.06847
26.1439
-5.2683
25.8543
-5.47141
25.5475
-5.69738
25.2228
-5.91444
24.8804
-6.14641
24.5267
-6.38868
24.153
-6.62921
23.7375
-6.8755
23.3277
-7.14647
22.8428
-7.41781
22.3966
-7.70687
21.8413
-8.00473
21.3539
-8.29832
20.5097
-8.59604
20.0193
-8.96837
19.2635
-9.26335
18.4881
-9.601
17.8562
-9.98443
17.0262
-10.2999
16.2397
-10.6985
15.3517
-11.0577
14.4672
-11.4631
13.5331
-11.8462
12.5623
-12.2702
11.5479
-12.6854
10.4849
-13.1125
9.36774
-13.5553
8.18565
-13.996
6.98783
-14.4476
5.70747
-14.8913
4.34135
-15.3422
2.86652
-15.8079
1.2436
-16.2541
-0.456421
-16.68
-2.28516
-17.0161
-4.28312
-17.1788
-6.18738
-17.2551
-8.52973
-17.2805
-11.036
-17.3948
-13.7257
-17.6058
-16.6037
-17.7974
-19.6517
-17.9459
-22.8454
-18.0424
-26.1441
-18.0696
-29.5156
-18.0754
-32.8988
-18.0317
-36.1939
-17.9285
-39.4743
-17.7528
-42.4782
-17.5722
-45.4972
-17.2905
-48.1094
-17.0247
-50.8029
-16.6126
-52.9275
-16.3969
-55.264
-15.9372
-56.9013
-15.5814
-58.8342
-15.124
-59.9001
-14.768
-61.572
-14.3463
-62.2195
-14.0101
-63.687
-13.5898
-64.0172
-13.2161
-65.2788
-12.8072
-65.749
-12.4887
-65.5626
-11.9462
-66.5666
-11.8373
-66.386
-11.2072
-66.2388
-11.1322
-66.0402
-10.926
-66.3109
-10.5988
-10.0905
31.706
-0.124882
-31.7178
31.6939
-0.127935
31.6817
-0.131104
31.6693
-0.134303
31.6566
-0.137579
31.6438
-0.140932
31.6307
-0.144373
31.6173
-0.147894
31.6037
-0.151499
31.5899
-0.155196
31.5758
-0.158986
31.5615
-0.162873
31.5469
-0.166858
31.5319
-0.170944
31.5168
-0.175134
31.5013
-0.179431
31.4855
-0.183838
31.4695
-0.188358
31.4531
-0.192994
31.4364
-0.197749
31.4195
-0.202626
31.4021
-0.207629
31.3845
-0.212762
31.3666
-0.218027
31.3483
-0.223429
31.3297
-0.228972
31.3107
-0.234659
31.2914
-0.240495
31.2718
-0.246484
31.2518
-0.252629
31.2315
-0.258937
31.2108
-0.265411
31.1897
-0.272055
31.1683
-0.278876
31.1465
-0.285878
31.1244
-0.293066
31.1019
-0.300446
31.079
-0.308023
31.0557
-0.315804
31.0321
-0.323793
31.0081
-0.331997
30.9837
-0.340422
30.959
-0.349076
30.9338
-0.357964
30.9083
-0.367095
30.8824
-0.376474
30.8561
-0.386111
30.8295
-0.396011
30.8024
-0.406185
30.775
-0.416639
30.7472
-0.427385
30.7191
-0.438427
30.6905
-0.449782
30.6616
-0.461446
30.6323
-0.473456
30.6026
-0.485772
30.5726
-0.498502
30.5422
-0.511474
30.5122
-0.525464
30.4803
-0.538341
30.4488
-0.552901
30.4208
-0.569841
30.386
-0.581208
30.3575
-0.600554
30.3217
-0.613232
30.2854
-0.629456
30.2484
-0.645488
30.22
-0.668241
30.1825
-0.681934
30.1435
-0.699665
30.1098
-0.721546
30.0699
-0.738314
30.0348
-0.760995
29.9945
-0.779673
29.9654
-0.807921
29.924
-0.823811
29.8822
-0.846859
29.8399
-0.870162
29.7956
-0.893565
29.7672
-0.927448
29.7224
-0.944935
29.6804
-0.974488
29.6399
-1.00255
29.614
-1.0394
29.5612
-1.05581
29.5188
-1.09054
29.4939
-1.13215
29.4422
-1.15054
29.3925
-1.18476
29.3453
-1.22115
29.3016
-1.25937
29.2535
-1.29479
29.2065
-1.33449
29.1559
-1.37308
29.1062
-1.41559
29.0552
-1.45894
29.003
-1.50246
28.9493
-1.54812
28.8943
-1.59647
28.8363
-1.64515
28.7759
-1.69612
28.7149
-1.75022
28.6552
-1.80852
28.5907
-1.86326
28.5203
-1.92049
28.4491
-1.98389
28.377
-2.0494
28.3027
-2.11641
28.2262
-2.18576
28.1568
-2.26669
28.0702
-2.32581
27.9819
-2.401
27.8861
-2.48049
27.7937
-2.56557
27.6865
-2.64445
27.5801
-2.73695
27.4641
-2.82847
27.3443
-2.92691
27.2235
-3.03267
27.0894
-3.13288
26.9528
-3.24551
26.8053
-3.35943
26.6547
-3.48157
26.4924
-3.60501
26.3245
-3.73723
26.145
-3.87192
25.9578
-4.01597
25.7691
-4.17223
25.5613
-4.31456
25.3273
-4.46427
25.0887
-4.64339
24.8355
-4.81519
24.5776
-5.01049
24.2865
-5.18031
24.0144
-5.42524
23.6949
-5.59497
23.3507
-5.80226
23.0206
-6.05859
22.6651
-6.27376
22.2877
-6.49806
21.8948
-6.75366
21.4578
-6.98081
21.0229
-7.27195
20.5284
-7.51022
20.0148
-7.78482
19.4678
-8.04904
18.8328
-8.33336
18.2152
-8.6457
17.5463
-8.93222
16.8159
-9.254
16.0726
-9.55662
15.3088
-9.93459
14.5057
-10.2547
13.6541
-10.6115
12.7677
-10.9599
11.8596
-11.362
10.8968
-11.7226
9.88996
-12.1057
8.83499
-12.5004
7.74326
-12.9043
6.61696
-13.3213
5.46088
-13.7353
4.2703
-14.1517
3.0284
-14.566
1.76142
-14.9871
0.454379
-15.373
-0.85723
-15.7045
-2.16065
-15.8754
-3.53222
-15.8836
-4.9448
-15.868
-6.41488
-15.9248
-7.96787
-16.0528
-9.55512
-16.2102
-11.1566
-16.3444
-12.7279
-16.4711
-14.2485
-16.549
-15.7311
-16.5929
-17.0863
-16.6765
-18.483
-16.5318
-19.7004
-16.5354
-20.9266
-16.3461
-21.9237
-16.2933
-22.9728
-15.9757
-23.9858
-15.5996
-24.9509
-15.4318
-25.5942
-15.2939
-26.408
-14.7676
-27.1902
-14.3417
-27.8289
-14.1293
-28.568
-13.6073
-29.1562
-13.4219
-29.7256
-13.0205
-30.3073
-12.6344
-30.8285
-12.2861
-31.3408
-11.9763
-31.6484
-11.6386
-32.0881
-11.3976
-32.3479
-10.9474
-32.7058
-10.7744
-32.9676
-10.6641
-33.1819
-10.3845
-10.0898
28.1747
-0.125805
-28.1738
28.1756
-0.128805
28.1764
-0.131876
28.1771
-0.13505
28.1779
-0.138303
28.1786
-0.141634
28.1792
-0.145044
28.1799
-0.148549
28.1806
-0.152146
28.1812
-0.155833
28.1818
-0.159611
28.1824
-0.163484
28.183
-0.167454
28.1836
-0.171523
28.1842
-0.175695
28.1847
-0.179971
28.1852
-0.184355
28.1857
-0.18885
28.1862
-0.193457
28.1866
-0.198182
28.187
-0.203026
28.1874
-0.207992
28.1877
-0.213085
28.188
-0.218307
28.1882
-0.223662
28.1884
-0.229154
28.1885
-0.234785
28.1885
-0.240562
28.1885
-0.246486
28.1885
-0.252562
28.1883
-0.258794
28.1881
-0.265187
28.1878
-0.271745
28.1874
-0.278472
28.1869
-0.285374
28.1863
-0.292455
28.1855
-0.299721
28.1847
-0.307176
28.1837
-0.314826
28.1826
-0.322676
28.1813
-0.330732
28.1799
-0.339001
28.1783
-0.347488
28.1766
-0.3562
28.1746
-0.365143
28.1725
-0.374325
28.1701
-0.383752
28.1675
-0.393431
28.1647
-0.403372
28.1617
-0.41358
28.1583
-0.424064
28.1547
-0.434831
28.1509
-0.445896
28.1467
-0.457259
28.1422
-0.468935
28.1373
-0.480936
28.1321
-0.49325
28.1265
-0.505887
28.12
-0.519021
28.114
-0.532288
28.107
-0.545907
28.0975
-0.560354
28.0912
-0.574931
28.0803
-0.589631
28.0723
-0.605253
28.0637
-0.620783
28.0552
-0.636992
28.0422
-0.655287
28.0325
-0.672186
28.0225
-0.689718
28.0085
-0.707492
27.9979
-0.727715
27.9837
-0.746787
27.9705
-0.766495
27.9485
-0.785898
27.9343
-0.80962
27.9184
-0.83099
27.9018
-0.853568
27.8852
-0.876976
27.8587
-0.900913
27.8402
-0.926439
27.8139
-0.948204
27.7886
-0.977195
27.7557
-1.00652
27.7323
-1.03247
27.7017
-1.05993
27.6631
-1.09351
27.6329
-1.12036
27.605
-1.1568
27.5699
-1.18607
27.5346
-1.22412
27.4999
-1.26002
27.4551
-1.28973
27.4153
-1.33324
27.3708
-1.37106
27.3216
-1.40974
27.2708
-1.45168
27.2204
-1.49773
27.1668
-1.54281
27.1104
-1.58879
27.0522
-1.63791
26.9913
-1.68929
26.9204
-1.7376
26.8517
-1.79457
26.7821
-1.85091
26.7058
-1.90757
26.6261
-1.96968
26.5433
-2.03369
26.4579
-2.10031
26.3521
-2.16092
26.2666
-2.24026
26.1789
-2.31336
26.0826
-2.38414
25.9778
-2.46077
25.8772
-2.54385
25.7686
-2.62831
25.654
-2.71387
25.5338
-2.80673
25.4034
-2.90223
25.2734
-3.00293
25.1353
-3.10735
24.9898
-3.21395
24.8363
-3.32812
24.676
-3.4447
24.505
-3.5662
24.3245
-3.69136
24.134
-3.82554
23.9172
-3.95534
23.7077
-4.10512
23.4896
-4.24618
23.2495
-4.40325
22.9905
-4.55619
22.7072
-4.72715
22.4186
-4.89174
22.0666
-5.07323
21.7449
-5.27326
21.3842
-5.44155
20.9551
-5.62954
20.5344
-5.85302
20.0818
-6.04549
19.6121
-6.28396
19.129
-6.49767
18.589
-6.73198
18.0755
-6.99672
17.5341
-7.24344
16.9707
-7.48559
16.3919
-7.75457
15.7691
-8.02288
15.1567
-8.31984
14.5085
-8.60586
13.858
-8.90608
13.162
-9.23859
12.4813
-9.57396
11.7494
-9.87964
11.0057
-10.2162
10.2348
-10.591
9.46519
-10.9531
8.65249
-11.293
7.80311
-11.651
6.91637
-12.0175
5.98835
-12.3933
5.01629
-12.7632
4.01332
-13.1487
2.96952
-13.5222
1.86293
-13.8805
0.719572
-14.2296
-0.471895
-14.5131
-1.70019
-14.6471
-2.90362
-14.6802
-4.15126
-14.6204
-5.40606
-14.67
-6.64807
-14.8108
-7.87928
-14.979
-9.10339
-15.1203
-10.3117
-15.2629
-11.4867
-15.374
-12.6294
-15.4502
-13.8488
-15.4571
-14.9634
-15.4171
-16.0713
-15.4275
-17.0645
-15.353
-18.2383
-15.1195
-19.26
-14.9541
-20.2031
-14.6565
-21.0681
-14.5667
-22.0246
-14.3374
-22.8253
-13.9669
-23.5545
-13.6125
-24.3001
-13.3837
-24.9671
-12.9404
-25.6589
-12.7301
-26.3052
-12.3741
-26.9137
-12.0259
-27.4876
-11.7121
-28.0591
-11.4049
-28.5837
-11.114
-29.1051
-10.8762
-29.4946
-10.5579
-29.9047
-10.3643
-30.3119
-10.257
-30.6154
-10.0811
-10.0308
27.4315
-0.116123
-27.4412
27.4216
-0.118966
27.4116
-0.121899
27.4015
-0.124873
27.3911
-0.127923
27.3805
-0.131052
27.3697
-0.13426
27.3587
-0.137544
27.3475
-0.14091
27.336
-0.144347
27.3242
-0.147875
27.3123
-0.151511
27.3
-0.155212
27.2875
-0.159044
27.2748
-0.162927
27.2618
-0.16697
27.2484
-0.171043
27.2349
-0.175313
27.221
-0.179586
27.2069
-0.184064
27.1925
-0.18864
27.1777
-0.193233
27.1628
-0.198113
27.1474
-0.202933
27.1318
-0.208111
27.1158
-0.213159
27.0996
-0.218541
27.083
-0.224032
27.0661
-0.229509
27.0489
-0.235419
27.0312
-0.241121
27.0134
-0.247359
26.995
-0.253368
26.9765
-0.259928
26.9574
-0.266283
26.9381
-0.273212
26.9183
-0.27988
26.8984
-0.287285
26.8778
-0.294186
26.8571
-0.301963
26.8356
-0.309249
26.8142
-0.317622
26.7919
-0.325209
26.7695
-0.333811
26.7465
-0.342106
26.7234
-0.351196
26.6994
-0.359817
26.6753
-0.369345
26.6506
-0.378662
26.626
-0.388942
26.6004
-0.398443
26.5742
-0.408622
26.5476
-0.419309
26.5207
-0.430361
26.4937
-0.441983
26.4656
-0.452832
26.4369
-0.464545
26.4081
-0.47706
26.3784
-0.489371
26.3492
-0.503047
26.3191
-0.515829
26.2875
-0.528755
26.2565
-0.543943
26.2244
-0.557543
26.1919
-0.572667
26.1597
-0.58864
26.1279
-0.605135
26.092
-0.619377
26.0563
-0.636488
26.0189
-0.65235
25.985
-0.673555
25.9466
-0.689333
25.9077
-0.707921
25.8675
-0.726323
25.8326
-0.750953
25.7912
-0.768185
25.749
-0.788845
25.7059
-0.810499
25.665
-0.835993
25.6201
-0.856049
25.5757
-0.882003
25.5356
-0.908121
25.4916
-0.933225
25.4402
-0.955145
25.3954
-0.987673
25.3513
-1.01575
25.298
-1.04021
25.2537
-1.07615
25.2032
-1.10625
25.1575
-1.14041
25.1041
-1.17065
25.0432
-1.19919
25.0029
-1.24938
24.9433
-1.27365
24.8827
-1.3105
24.8241
-1.35109
24.7655
-1.39312
24.7066
-1.43884
24.6419
-1.47811
24.5768
-1.52367
24.5082
-1.56929
24.4436
-1.62473
24.3771
-1.67103
24.3121
-1.72966
24.2357
-1.77451
24.1573
-1.82907
24.0837
-1.89616
24.0007
-1.95065
23.913
-2.0126
23.8267
-2.07459
23.7402
-2.15384
23.6441
-2.21719
23.5496
-2.28966
23.4473
-2.35844
23.357
-2.45355
23.253
-2.52432
23.1457
-2.60657
23.0477
-2.70871
22.9369
-2.79147
22.817
-2.88299
22.689
-2.97936
22.5519
-3.07689
22.416
-3.19218
22.2679
-3.29666
22.1062
-3.40449
21.9343
-3.51938
21.7499
-3.64119
21.5652
-3.77059
21.3605
-3.90042
21.1461
-4.03176
20.9112
-4.16838
20.6751
-4.32011
20.4136
-4.46565
20.1514
-4.62946
19.8806
-4.80246
19.5692
-4.96182
19.2599
-5.13225
18.9517
-5.32133
18.6154
-5.51677
18.2491
-5.67913
17.8727
-5.90765
17.4849
-6.10979
17.0673
-6.31446
16.6508
-6.58015
16.2002
-6.79286
15.7361
-7.02144
15.2633
-7.28185
14.7715
-7.53099
14.2613
-7.80966
13.7278
-8.07241
13.171
-8.34925
12.5762
-8.64375
11.9538
-8.95161
11.3215
-9.2473
10.6479
-9.54264
9.92948
-9.87262
9.18147
-10.2051
8.42497
-10.5364
7.64022
-10.8662
6.82667
-11.204
5.97745
-11.5441
5.10033
-11.8861
4.18424
-12.2326
3.23579
-12.5737
2.26049
-12.9052
1.2432
-13.2123
0.20594
-13.4758
-0.831467
-13.6097
-1.92292
-13.5887
-3.0411
-13.5022
-4.23611
-13.475
-5.4968
-13.5501
-6.78782
-13.688
-8.07079
-13.8373
-9.35718
-13.9765
-10.6396
-14.0916
-11.867
-14.2228
-13.0858
-14.2383
-14.1903
-14.3126
-15.3402
-14.2777
-16.4907
-14.2024
-17.5851
-14.0252
-18.5661
-13.9731
-19.4411
-13.7814
-20.3798
-13.6281
-21.2856
-13.4316
-22.0889
-13.1637
-22.7846
-12.9167
-23.5333
-12.6351
-24.1356
-12.338
-24.8005
-12.0651
-25.3981
-11.7765
-25.9415
-11.4826
-26.4608
-11.1928
-26.9357
-10.93
-27.3824
-10.6674
-27.8289
-10.4296
-28.2204
-10.1664
-28.5647
-10.02
-28.9473
-9.87442
-29.3038
-9.72457
-9.74202
25.0576
-0.113736
-25.0601
25.0551
-0.116473
25.0524
-0.119269
25.0497
-0.122162
25.0469
-0.125127
25.0439
-0.128165
25.0409
-0.131278
25.0378
-0.134469
25.0346
-0.137742
25.0313
-0.141115
25.028
-0.144563
25.0245
-0.148089
25.021
-0.151719
25.0174
-0.155418
25.0136
-0.159242
25.0098
-0.163121
25.0058
-0.16715
25.0017
-0.171212
24.9976
-0.17546
24.9932
-0.179737
24.9887
-0.184151
24.9842
-0.188749
24.9794
-0.193335
24.9746
-0.198185
24.9695
-0.202968
24.9644
-0.208098
24.9591
-0.213186
24.9535
-0.218443
24.9479
-0.223965
24.9419
-0.229389
24.936
-0.235257
24.9296
-0.240955
24.9234
-0.247131
24.9166
-0.253144
24.9099
-0.259634
24.9027
-0.265958
24.8956
-0.272823
24.8877
-0.279406
24.8803
-0.286746
24.8721
-0.293725
24.8642
-0.301417
24.8552
-0.308601
24.8468
-0.316789
24.8375
-0.324542
24.8284
-0.332951
24.8183
-0.341142
24.8086
-0.350135
24.7981
-0.358817
24.7876
-0.368188
24.7759
-0.377264
24.7648
-0.387345
24.7535
-0.397263
24.7417
-0.407491
24.7291
-0.41776
24.7155
-0.428459
24.7027
-0.440048
24.6895
-0.451315
24.6752
-0.462779
24.6606
-0.474775
24.6445
-0.486884
24.6289
-0.500265
24.6136
-0.513455
24.5958
-0.526093
24.579
-0.540796
24.5607
-0.554401
24.5406
-0.568515
24.52
-0.584525
24.5004
-0.599811
24.4796
-0.615627
24.4597
-0.632502
24.4351
-0.64889
24.4126
-0.666838
24.3903
-0.685594
24.3671
-0.703173
24.3374
-0.72123
24.3126
-0.7434
24.2872
-0.76341
24.2599
-0.783203
24.228
-0.804126
24.2004
-0.82845
24.1679
-0.849459
24.1335
-0.873762
24.0977
-0.897446
24.0674
-0.924869
24.0281
-0.9483
23.9884
-0.976087
23.9508
-1.0026
23.9054
-1.03072
23.8585
-1.05939
23.8108
-1.09273
23.7641
-1.12394
23.7209
-1.15595
23.6589
-1.18741
23.6093
-1.22406
23.5605
-1.26167
23.5081
-1.29869
23.4485
-1.33353
23.383
-1.37335
23.3242
-1.41932
23.2607
-1.46016
23.1965
-1.50505
23.1208
-1.54903
23.0493
-1.59956
22.9671
-1.64743
22.8941
-1.70154
22.8193
-1.75427
22.7285
-1.80532
22.6435
-1.86572
22.5529
-1.92197
22.4595
-1.98121
22.349
-2.04327
22.243
-2.11124
22.1346
-2.18125
22.0254
-2.24926
21.8862
-2.3143
21.7636
-2.40172
21.6379
-2.48088
21.4912
-2.56197
21.351
-2.65126
21.2054
-2.7374
21.0524
-2.82638
20.8937
-2.91819
20.7196
-3.01811
20.5425
-3.11955
20.3556
-3.21759
20.1664
-3.33021
19.9671
-3.4419
19.7567
-3.56012
19.5327
-3.67645
19.318
-3.81701
19.0828
-3.93324
18.8439
-4.08122
18.5934
-4.21512
18.3247
-4.36079
18.0372
-4.51491
17.7456
-4.67021
17.4417
-4.82838
17.1211
-5.00075
16.7922
-5.18782
16.4846
-5.37155
16.1276
-5.55062
15.7624
-5.74458
15.3979
-5.94996
14.9852
-6.1675
14.5937
-6.40134
14.1906
-6.61835
13.7512
-6.84244
13.2995
-7.07928
12.8217
-7.33187
12.3313
-7.58196
11.8274
-7.84535
11.2979
-8.11428
10.7418
-8.39552
10.1774
-8.68286
9.60206
-8.96734
8.98917
-9.25972
8.35011
-9.56601
7.68501
-9.87134
6.99947
-10.1807
6.28612
-10.4906
5.54764
-10.8056
4.78106
-11.1195
3.98211
-11.4336
3.15391
-11.7455
2.30029
-12.0516
1.41302
-12.3251
0.492768
-12.5556
-0.457629
-12.6593
-1.40991
-12.6364
-2.39242
-12.5197
-3.4019
-12.4655
-4.41682
-12.5352
-5.42109
-12.6837
-6.41567
-12.8427
-7.41569
-12.9765
-8.41028
-13.097
-9.46265
-13.1704
-10.5654
-13.1356
-11.6563
-13.2217
-12.7529
-13.181
-13.7941
-13.1612
-14.729
-13.0904
-15.7228
-12.9793
-16.659
-12.8452
-17.5999
-12.6873
-18.5211
-12.5103
-19.3763
-12.3085
-20.1958
-12.0972
-20.9675
-11.8634
-21.7128
-11.5927
-22.4185
-11.3595
-23.0993
-11.0957
-23.7357
-10.8462
-24.3433
-10.5852
-24.9265
-10.3469
-25.4724
-10.1214
-25.9947
-9.90738
-26.4578
-9.70324
-26.906
-9.57185
-27.3296
-9.4508
-27.6768
-9.37733
-9.44438
23.9416
-0.106351
-23.9491
23.9341
-0.108947
23.9264
-0.111605
23.9186
-0.114338
23.9106
-0.117142
23.9024
-0.120012
23.8941
-0.122954
23.8856
-0.125971
23.8769
-0.129065
23.868
-0.132235
23.8589
-0.135484
23.8496
-0.138815
23.8401
-0.142231
23.8304
-0.145734
23.8205
-0.149326
23.8103
-0.15301
23.8
-0.156789
23.7894
-0.160665
23.7786
-0.16464
23.7675
-0.168718
23.7563
-0.172902
23.7447
-0.177193
23.733
-0.181596
23.7209
-0.186114
23.7087
-0.190749
23.6961
-0.195505
23.6833
-0.200385
23.6702
-0.205394
23.6568
-0.210534
23.6432
-0.215809
23.6292
-0.221223
23.615
-0.22678
23.6003
-0.232484
23.5855
-0.238339
23.5702
-0.244349
23.5548
-0.25052
23.5388
-0.256855
23.5228
-0.263359
23.5061
-0.270038
23.4892
-0.276895
23.4718
-0.283937
23.4543
-0.291169
23.4361
-0.298596
23.4178
-0.306225
23.3989
-0.31406
23.3799
-0.322109
23.3601
-0.330377
23.3402
-0.338872
23.3196
-0.347601
23.2989
-0.356572
23.2773
-0.365784
23.2553
-0.375259
23.2328
-0.384997
23.2101
-0.395002
23.1869
-0.405291
23.1627
-0.415872
23.1382
-0.426749
23.1133
-0.437934
23.088
-0.449437
23.0624
-0.461268
23.0355
-0.473443
23.0081
-0.485965
22.9808
-0.498843
22.9521
-0.512119
22.9235
-0.525744
22.8947
-0.539779
22.8645
-0.554299
22.8337
-0.569052
22.8028
-0.584736
22.7703
-0.600006
22.7381
-0.616637
22.706
-0.634785
22.6713
-0.65082
22.6359
-0.667794
22.6028
-0.688103
22.5654
-0.706012
22.5271
-0.72517
22.4897
-0.745803
22.452
-0.766363
22.4113
-0.787835
22.3713
-0.809438
22.3289
-0.831305
22.289
-0.857582
22.2446
-0.880466
22.2011
-0.904774
22.1547
-0.929766
22.1097
-0.957544
22.0666
-0.987637
22.0201
-1.01288
21.9722
-1.04487
21.9226
-1.07434
21.8722
-1.10555
21.8206
-1.13576
21.7696
-1.17305
21.7149
-1.20698
21.6575
-1.24132
21.6002
-1.27621
21.5468
-1.31996
21.4843
-1.35683
21.4204
-1.39629
21.356
-1.44059
21.2886
-1.48168
21.2218
-1.53277
21.1485
-1.57407
21.076
-1.62907
20.9976
-1.67584
20.9197
-1.72749
20.836
-1.78196
20.7482
-1.83423
20.6616
-1.8946
20.5717
-1.95339
20.472
-2.01153
20.3752
-2.08443
20.2722
-2.1463
20.1673
-2.20941
20.0564
-2.29073
19.9348
-2.35928
19.8109
-2.43809
19.675
-2.51534
19.5345
-2.59694
19.3895
-2.68135
19.251
-2.77966
19.1018
-2.86898
18.9418
-2.95949
18.7756
-3.05146
18.6102
-3.16477
18.4393
-3.27098
18.2558
-3.37662
18.0625
-3.48312
17.8646
-3.61915
17.6668
-3.73542
17.4564
-3.87078
17.2408
-3.99961
17.0143
-4.13425
16.7744
-4.27497
16.5252
-4.42109
16.2722
-4.57531
16.0074
-4.736
15.7221
-4.90247
15.4233
-5.07283
15.1211
-5.24843
14.8103
-5.43376
14.4869
-5.62657
14.1365
-5.81708
13.7635
-6.02829
13.3873
-6.24219
12.9989
-6.45401
12.5943
-6.67476
12.1691
-6.90667
11.7354
-7.14821
11.2814
-7.39135
10.8056
-7.63846
10.3044
-7.89432
9.78002
-8.1585
9.2416
-8.42893
8.68405
-8.70217
8.09763
-8.97959
7.49019
-9.26389
6.85934
-9.54986
6.20714
-9.83844
5.52917
-10.1276
4.82805
-10.4184
4.10193
-10.7075
3.35176
-10.9954
2.57057
-11.2704
1.76226
-11.5168
0.918419
-11.7117
0.0540735
-11.7949
-0.840696
-11.7416
-1.76541
-11.5949
-2.75589
-11.475
-3.80598
-11.4851
-4.89628
-11.5934
-6.00121
-11.7378
-7.09557
-11.8821
-8.16955
-12.023
-9.26089
-12.0791
-10.294
-12.1025
-11.3338
-12.1819
-12.3248
-12.19
-13.3152
-12.1708
-14.2827
-12.1229
-15.2011
-12.0608
-16.0892
-11.9571
-16.9353
-11.8411
-17.7569
-11.6888
-18.5431
-11.5222
-19.3081
-11.3323
-20.0419
-11.1296
-20.7205
-10.9141
-21.3885
-10.6915
-22.0171
-10.4671
-22.6218
-10.2415
-23.191
-10.016
-23.7339
-9.80394
-24.2559
-9.59942
-24.7479
-9.41535
-25.1994
-9.25174
-25.6359
-9.13536
-26.0643
-9.02245
-26.4597
-8.98192
-9.03102
22.2526
-0.102527
-22.2565
22.2487
-0.105026
22.2446
-0.107583
22.2405
-0.110195
22.2362
-0.112876
22.2318
-0.115627
22.2273
-0.118448
22.2226
-0.121339
22.2179
-0.124302
22.213
-0.12734
22.2079
-0.130457
22.2027
-0.133653
22.1974
-0.13693
22.192
-0.140291
22.1864
-0.143736
22.1806
-0.14727
22.1747
-0.150893
22.1686
-0.154609
22.1624
-0.15842
22.156
-0.162329
22.1494
-0.166338
22.1427
-0.170451
22.1357
-0.174669
22.1286
-0.178997
22.1213
-0.183436
22.1138
-0.187991
22.106
-0.192664
22.0981
-0.197458
22.0899
-0.202378
22.0816
-0.207427
22.0729
-0.212608
22.0641
-0.217924
22.055
-0.223381
22.0456
-0.228982
22.036
-0.23473
22.0261
-0.240631
22.0159
-0.246689
22.0055
-0.252907
21.9947
-0.259292
21.9837
-0.265847
21.9723
-0.272578
21.9606
-0.279489
21.9486
-0.286587
21.9363
-0.293876
21.9236
-0.301363
21.9105
-0.309053
21.8971
-0.316953
21.8833
-0.325068
21.8691
-0.333406
21.8545
-0.341972
21.8395
-0.350776
21.8241
-0.359822
21.8082
-0.36912
21.7918
-0.378677
21.7751
-0.388501
21.7578
-0.3986
21.74
-0.408984
21.7217
-0.41966
21.7029
-0.43064
21.6836
-0.441931
21.6637
-0.453545
21.6432
-0.465493
21.6222
-0.477783
21.6005
-0.49043
21.5782
-0.503441
21.5552
-0.516834
21.5316
-0.530616
21.5073
-0.544802
21.482
-0.559417
21.4564
-0.574445
21.4297
-0.589929
21.4008
-0.605888
21.3723
-0.622342
21.3438
-0.63923
21.3123
-0.65667
21.281
-0.674647
21.249
-0.693179
21.2154
-0.712188
21.1809
-0.731877
21.1452
-0.752185
21.1088
-0.773047
21.0721
-0.794597
21.0313
-0.816727
20.9907
-0.839881
20.9496
-0.863713
20.9081
-0.888188
20.8643
-0.913805
20.8169
-0.940179
20.771
-0.967059
20.721
-0.994838
20.6704
-1.02372
20.6185
-1.05364
20.567
-1.08431
20.5098
-1.11586
20.4517
-1.14882
20.3929
-1.18256
20.3341
-1.21741
20.2679
-1.2537
20.2023
-1.29125
20.1358
-1.32978
20.0646
-1.36945
19.9939
-1.41089
19.9149
-1.45381
19.839
-1.49814
19.7538
-1.54391
19.6684
-1.59044
19.5811
-1.64016
19.4904
-1.69125
19.399
-1.74282
19.3018
-1.79741
19.2029
-1.85453
19.1038
-1.9124
18.9916
-1.97222
18.8812
-2.03588
18.7725
-2.10075
18.6493
-2.16757
18.529
-2.23892
18.401
-2.3101
18.2701
-2.38448
18.1376
-2.46442
18.0016
-2.54536
17.8504
-2.62841
17.6982
-2.71682
17.5453
-2.80658
17.3922
-2.89835
17.2246
-2.99718
17.0513
-3.09767
16.8754
-3.2007
16.7015
-3.30924
16.5052
-3.42289
16.3082
-3.53834
16.0948
-3.65746
15.8763
-3.78106
15.6535
-3.91142
15.425
-4.04651
15.1909
-4.18696
14.9453
-4.32972
14.6898
-4.48049
14.4236
-4.63628
14.1474
-4.7966
13.8652
-4.96624
13.5703
-5.13889
13.2597
-5.31602
12.9468
-5.50417
12.6139
-5.6954
12.2629
-5.89114
11.906
-6.09713
11.5383
-6.30706
11.1546
-6.52293
10.7492
-6.74287
10.3299
-6.97203
9.8988
-7.20737
9.45271
-7.44824
8.9885
-7.69429
8.50437
-7.94481
8.00275
-8.20054
7.48473
-8.46158
6.94549
-8.72465
6.38705
-8.99142
5.80759
-9.25898
5.20887
-9.52889
4.58728
-9.79678
3.9463
-10.0665
3.27948
-10.3285
2.59195
-10.5829
1.87336
-10.7982
1.12442
-10.9628
0.347617
-11.0181
-0.440167
-10.9539
-1.24718
-10.7879
-2.08579
-10.6364
-2.95144
-10.6195
-3.81863
-10.7262
-4.71065
-10.8458
-5.62236
-10.9704
-6.60535
-11.04
-7.55621
-11.1282
-8.47472
-11.184
-9.42731
-11.2293
-10.3771
-11.2403
-11.3057
-11.2422
-12.2268
-11.2017
-13.1457
-11.1419
-14.0454
-11.0574
-14.9356
-10.9509
-15.7959
-10.8285
-16.6338
-10.6843
-17.4412
-10.5249
-18.2221
-10.3486
-18.9745
-10.1618
-19.6953
-9.9707
-20.3864
-9.77601
-21.0448
-9.58314
-21.6716
-9.38916
-22.2669
-9.20858
-22.8329
-9.03348
-23.3683
-8.87996
-23.8703
-8.74967
-24.345
-8.66074
-24.8014
-8.566
-25.2506
-8.53271
-8.59949
21.0833
-0.0961538
-21.0896
21.0768
-0.0985148
21.0701
-0.10093
21.0633
-0.10341
21.0564
-0.105954
21.0493
-0.108561
21.0421
-0.111234
21.0348
-0.113974
21.0273
-0.116785
21.0196
-0.119668
21.0118
-0.122623
21.0038
-0.125653
20.9956
-0.12876
20.9873
-0.131947
20.9787
-0.135215
20.97
-0.138568
20.9611
-0.142006
20.9521
-0.145533
20.9428
-0.149152
20.9333
-0.152864
20.9237
-0.156672
20.9138
-0.160579
20.9037
-0.164587
20.8934
-0.1687
20.8829
-0.17292
20.8722
-0.17725
20.8612
-0.181694
20.85
-0.186255
20.8386
-0.190935
20.8269
-0.195739
20.815
-0.20067
20.8028
-0.205731
20.7903
-0.210927
20.7776
-0.21626
20.7646
-0.221736
20.7513
-0.227358
20.7378
-0.23313
20.7239
-0.239057
20.7098
-0.245143
20.6953
-0.251392
20.6805
-0.257811
20.6654
-0.264403
20.65
-0.271174
20.6343
-0.278128
20.6182
-0.285273
20.6018
-0.292612
20.585
-0.300152
20.5678
-0.307898
20.5502
-0.315859
20.5323
-0.324038
20.514
-0.332446
20.4952
-0.341083
20.4761
-0.349965
20.4565
-0.359091
20.4365
-0.368477
20.416
-0.378122
20.395
-0.388043
20.3736
-0.398241
20.3517
-0.408732
20.3293
-0.419518
20.3064
-0.430616
20.2829
-0.442028
20.2589
-0.453773
20.2343
-0.465853
20.2092
-0.478287
20.1834
-0.491081
20.157
-0.504251
20.13
-0.517805
20.1024
-0.53176
20.0741
-0.546128
20.0451
-0.560923
20.0153
-0.57616
19.9849
-0.591853
19.9536
-0.608018
19.9216
-0.624671
19.8888
-0.641832
19.8552
-0.659515
19.8207
-0.677737
19.7853
-0.69652
19.7491
-0.71589
19.7119
-0.735851
19.6737
-0.756432
19.6346
-0.777666
19.5943
-0.799585
19.5528
-0.822137
19.51
-0.845441
19.4658
-0.869585
19.42
-0.894413
19.3729
-0.919947
19.3245
-0.946402
19.2746
-0.973805
19.223
-1.00205
19.1698
-1.03116
19.1152
-1.06128
19.0589
-1.09248
19.001
-1.12464
18.9414
-1.15783
18.8799
-1.19225
18.8165
-1.22781
18.7512
-1.2645
18.6843
-1.30256
18.6153
-1.34182
18.5439
-1.38242
18.4704
-1.42472
18.3946
-1.46807
18.3171
-1.51295
18.2368
-1.55989
18.1538
-1.60824
18.0687
-1.6577
17.981
-1.70968
17.8902
-1.76374
17.7963
-1.81849
17.7002
-1.87615
17.6008
-1.93643
17.4973
-1.9973
17.3909
-2.06121
17.2803
-2.12825
17.1666
-2.19647
17.0497
-2.26759
16.9276
-2.34224
16.8002
-2.41801
16.6692
-2.49735
16.5326
-2.58024
16.3914
-2.66543
16.2465
-2.75344
16.0949
-2.84557
15.9384
-2.94113
15.7765
-3.0388
15.6082
-3.14098
15.4326
-3.24731
15.2517
-3.35744
15.066
-3.47172
14.8756
-3.59064
14.6776
-3.7134
14.4715
-3.84043
14.2562
-3.97164
14.0353
-4.10888
13.8055
-4.25064
13.5673
-4.39813
13.3214
-4.55068
13.0627
-4.70756
12.7946
-4.87076
12.5192
-5.04063
12.2289
-5.21388
11.9276
-5.39411
11.6174
-5.58098
11.2923
-5.77203
10.9536
-5.96835
10.6013
-6.17056
10.2386
-6.38023
9.8615
-6.59492
9.4682
-6.81406
9.05869
-7.03874
8.63333
-7.26892
8.19269
-7.50418
7.73525
-7.74309
7.25891
-7.98525
6.76522
-8.23096
6.25239
-8.4786
5.72147
-8.72805
5.16992
-8.97735
4.6006
-9.22746
4.00812
-9.47407
3.39699
-9.71742
2.75608
-9.94196
2.08854
-10.1306
1.38297
-10.2572
0.650403
-10.2856
-0.11162
-10.1918
-0.893461
-10.0061
-1.72474
-9.80511
-2.60608
-9.73813
-3.53941
-9.79287
-4.46232
-9.92286
-5.41192
-10.0208
-6.35998
-10.092
-7.28329
-10.2049
-8.20728
-10.26
-9.11162
-10.3249
-10.0085
-10.3434
-10.8974
-10.3533
-11.7665
-10.3327
-12.6153
-10.2932
-13.4453
-10.2274
-14.2524
-10.1437
-15.0448
-10.0361
-15.814
-9.91511
-16.5638
-9.77515
-17.2889
-9.62344
-17.9898
-9.46097
-18.6688
-9.29163
-19.3233
-9.12159
-19.9527
-8.95373
-20.5544
-8.78743
-21.1341
-8.6289
-21.6874
-8.48018
-22.2176
-8.34973
-22.725
-8.24225
-23.227
-8.15877
-23.7117
-8.0813
-24.1783
-8.06615
-8.15733
19.7091
-0.0916824
-19.7136
19.7046
-0.0939297
19.6999
-0.0962324
19.6951
-0.0985904
19.6901
-0.101009
19.6851
-0.10349
19.6799
-0.106034
19.6746
-0.108642
19.6691
-0.111317
19.6635
-0.114058
19.6578
-0.11687
19.6519
-0.119753
19.6458
-0.122712
19.6397
-0.125745
19.6333
-0.128857
19.6268
-0.132048
19.6201
-0.135321
19.6133
-0.138678
19.6063
-0.142122
19.5991
-0.145655
19.5917
-0.149278
19.5841
-0.152996
19.5763
-0.15681
19.5684
-0.160722
19.5602
-0.164737
19.5518
-0.168856
19.5432
-0.173083
19.5343
-0.17742
19.5253
-0.181871
19.516
-0.186439
19.5064
-0.191128
19.4966
-0.19594
19.4866
-0.200879
19.4763
-0.205949
19.4657
-0.211154
19.4548
-0.216497
19.4437
-0.221983
19.4323
-0.227615
19.4205
-0.233399
19.4085
-0.239338
19.3961
-0.245436
19.3834
-0.251699
19.3703
-0.258132
19.357
-0.264739
19.3432
-0.271525
19.3291
-0.278497
19.3146
-0.285659
19.2997
-0.293017
19.2844
-0.300577
19.2687
-0.308345
19.2526
-0.316328
19.2361
-0.324533
19.2191
-0.332964
19.2016
-0.341632
19.1837
-0.350541
19.1653
-0.359702
19.1463
-0.369119
19.1269
-0.378804
19.1069
-0.388761
19.0864
-0.399004
19.0653
-0.409537
19.0437
-0.420374
19.0214
-0.431521
18.9986
-0.442992
18.9751
-0.454793
18.9509
-0.46694