/*--------------------------------*- C++ -*----------------------------------*\
  =========                 |
  \\      /  F ield         | OpenFOAM: The Open Source CFD Toolbox
   \\    /   O peration     | Website:  https://openfoam.org
    \\  /    A nd           | Version:  7
     \\/     M anipulation  |
\*---------------------------------------------------------------------------*/
FoamFile
{
    version     2.0;
    format      ascii;
    class       volScalarField;
    location    "1";
    object      R;
}
// * * * * * * * * * * * * * * * * * * * * * * * * * * * * * * * * * * * * * //

dimensions      [0 2 -1 0 0 0 0];

internalField   nonuniform List<scalar> 
152725
(
0.158034
0.158039
0.158044
0.158049
0.158054
0.158059
0.158064
0.158069
0.158073
0.158079
0.158084
0.158089
0.158095
0.1581
0.158106
0.158113
0.158119
0.158126
0.158133
0.15814
0.158147
0.158154
0.158162
0.15817
0.158178
0.158186
0.158194
0.158203
0.158211
0.15822
0.158229
0.158238
0.158247
0.158256
0.158266
0.158275
0.158285
0.158295
0.158306
0.158317
0.158328
0.158339
0.158352
0.158364
0.158377
0.15839
0.158404
0.158418
0.158433
0.158449
0.158465
0.158482
0.1585
0.158519
0.158537
0.158558
0.158579
0.158601
0.158623
0.158648
0.158672
0.158698
0.158725
0.158753
0.158783
0.158813
0.158845
0.158879
0.158914
0.15895
0.158989
0.159027
0.15907
0.159113
0.159161
0.159208
0.159258
0.15931
0.159365
0.159423
0.159481
0.159546
0.159609
0.159679
0.159748
0.159823
0.1599
0.159982
0.160066
0.160158
0.16025
0.16035
0.16045
0.160558
0.160667
0.160784
0.160902
0.16103
0.161159
0.161298
0.161438
0.161586
0.161738
0.161894
0.162054
0.162217
0.162382
0.162558
0.162732
0.162926
0.163118
0.163336
0.163556
0.1638
0.16405
0.164313
0.164588
0.164866
0.165159
0.165452
0.165768
0.166085
0.166428
0.166771
0.167146
0.167521
0.167938
0.168366
0.168824
0.169287
0.169815
0.170351
0.170913
0.17147
0.172113
0.172742
0.173467
0.174169
0.175016
0.175865
0.17685
0.177839
0.178968
0.180111
0.181465
0.182967
0.184389
0.186021
0.187611
0.189428
0.191337
0.193369
0.195617
0.197996
0.200697
0.203716
0.20709
0.210896
0.215306
0.220284
0.226047
0.232859
0.241357
0.252308
0.268905
0.295948
0.341738
0.402916
0.478263
0.525032
0.515498
0.447873
0.394264
0.362269
0.341335
0.325759
0.313677
0.304041
0.295944
0.289607
0.28427
0.280515
0.277453
0.275435
0.273881
0.272762
0.271794
0.270949
0.270041
0.268586
0.266681
0.263902
0.260562
0.256468
0.250915
0.245231
0.237456
0.229524
0.220377
0.210547
0.20049
0.19052
0.154792
0.154799
0.154807
0.154815
0.154822
0.15483
0.154839
0.154847
0.154856
0.154865
0.154874
0.154883
0.154893
0.154902
0.154913
0.154923
0.154933
0.154944
0.154955
0.154966
0.154977
0.154989
0.155001
0.155013
0.155025
0.155037
0.15505
0.155063
0.155075
0.155089
0.155102
0.155116
0.155129
0.155143
0.155158
0.155172
0.155187
0.155202
0.155217
0.155233
0.155249
0.155265
0.155282
0.155299
0.155316
0.155334
0.155353
0.155371
0.155391
0.155411
0.155432
0.155453
0.155476
0.155498
0.155522
0.155547
0.155572
0.155598
0.155626
0.155653
0.155684
0.155714
0.155746
0.155783
0.155816
0.155849
0.155889
0.155934
0.155971
0.156012
0.156057
0.156102
0.156149
0.156205
0.156261
0.156312
0.156365
0.156426
0.156492
0.156553
0.156621
0.156699
0.156775
0.156846
0.156923
0.157012
0.157096
0.157188
0.157291
0.157399
0.157506
0.157621
0.157738
0.157862
0.157987
0.158121
0.158258
0.158404
0.158556
0.158713
0.158878
0.159046
0.159223
0.159405
0.159593
0.159786
0.159983
0.16018
0.160384
0.160584
0.160812
0.161054
0.161312
0.161587
0.161872
0.162171
0.162475
0.162789
0.163105
0.16344
0.16378
0.164143
0.164509
0.164907
0.16531
0.165754
0.1662
0.166696
0.167197
0.167769
0.168373
0.169007
0.169642
0.170339
0.171095
0.17185
0.172612
0.17351
0.174403
0.175415
0.176471
0.177649
0.178925
0.18026
0.181637
0.183077
0.184607
0.186189
0.187824
0.189567
0.191385
0.193474
0.19563
0.198043
0.200663
0.203695
0.206893
0.210566
0.21467
0.219402
0.224692
0.231018
0.238749
0.249272
0.263692
0.287573
0.324975
0.36634
0.429822
0.510098
0.532255
0.488358
0.41885
0.37621
0.349848
0.332015
0.318476
0.308043
0.299127
0.291567
0.285113
0.279108
0.274081
0.269646
0.266655
0.264609
0.263278
0.262112
0.261645
0.261406
0.261452
0.261272
0.2602
0.258524
0.256885
0.254253
0.25102
0.246552
0.240621
0.233932
0.224606
0.213106
0.15345
0.15346
0.15347
0.153479
0.15349
0.1535
0.15351
0.153521
0.153532
0.153543
0.153555
0.153567
0.153579
0.153592
0.153605
0.153618
0.153632
0.153645
0.15366
0.153674
0.153689
0.153705
0.15372
0.153736
0.153753
0.15377
0.153787
0.153805
0.153823
0.153842
0.153861
0.15388
0.1539
0.153921
0.153942
0.153963
0.153985
0.154008
0.154031
0.154055
0.15408
0.154105
0.15413
0.154157
0.154184
0.154212
0.154241
0.15427
0.154301
0.154332
0.154364
0.154397
0.154431
0.154466
0.154501
0.154538
0.154576
0.154614
0.154654
0.154695
0.154738
0.154781
0.154826
0.154872
0.154919
0.154968
0.155018
0.15507
0.155125
0.15518
0.155236
0.155295
0.155356
0.155419
0.155485
0.155551
0.15562
0.155692
0.155767
0.155844
0.155924
0.156008
0.15609
0.156177
0.156267
0.156363
0.156459
0.156562
0.156667
0.156777
0.156887
0.157003
0.157124
0.15725
0.157381
0.157515
0.15765
0.157796
0.157947
0.158097
0.158256
0.158419
0.158588
0.158757
0.158949
0.159153
0.159355
0.159556
0.159754
0.159947
0.16011
0.160353
0.160605
0.160851
0.16113
0.161421
0.161721
0.162025
0.162336
0.162644
0.162995
0.163345
0.163726
0.164108
0.164534
0.164972
0.165446
0.165929
0.166395
0.167011
0.167652
0.168292
0.168946
0.169667
0.170565
0.171216
0.172015
0.172972
0.173865
0.174851
0.175888
0.176969
0.178149
0.179284
0.18047
0.181733
0.18311
0.184529
0.186104
0.187618
0.189606
0.191652
0.193864
0.196101
0.198938
0.201776
0.20505
0.20854
0.212743
0.21718
0.222669
0.228828
0.236647
0.246305
0.260899
0.282955
0.316796
0.354359
0.402431
0.486697
0.528936
0.506144
0.430925
0.381403
0.350937
0.330522
0.314785
0.30248
0.291852
0.282787
0.275156
0.268309
0.262374
0.256576
0.251805
0.247731
0.244192
0.240691
0.237867
0.235063
0.232696
0.230499
0.228513
0.226693
0.225102
0.223649
0.222284
0.221131
0.219863
0.218771
0.217637
0.216681
0.153399
0.153413
0.153428
0.153442
0.153457
0.153471
0.153486
0.153502
0.153518
0.153534
0.153551
0.153568
0.153585
0.153603
0.153621
0.153639
0.153658
0.153677
0.153696
0.153716
0.153736
0.153757
0.153778
0.153799
0.153821
0.153843
0.153865
0.153888
0.153911
0.153935
0.153959
0.153983
0.154008
0.154033
0.154059
0.154085
0.154112
0.15414
0.154167
0.154196
0.154225
0.154255
0.154285
0.154316
0.154348
0.15438
0.154412
0.154446
0.15448
0.154515
0.15455
0.154586
0.154623
0.154661
0.154699
0.154738
0.154778
0.15482
0.154861
0.154904
0.154951
0.154993
0.155038
0.155089
0.155134
0.155185
0.155246
0.155297
0.155346
0.155403
0.155469
0.155526
0.155581
0.155643
0.155719
0.155781
0.155844
0.155919
0.155993
0.156064
0.15614
0.156227
0.156303
0.156386
0.15648
0.15657
0.156662
0.156756
0.156866
0.156975
0.157053
0.15717
0.157284
0.157393
0.157533
0.157674
0.15781
0.157946
0.158092
0.158237
0.158387
0.158537
0.158691
0.158839
0.159027
0.159234
0.159441
0.159644
0.159848
0.160054
0.160272
0.16049
0.160719
0.16099
0.161255
0.16155
0.161866
0.16218
0.162499
0.162829
0.163185
0.163559
0.163962
0.164365
0.164809
0.165259
0.16576
0.166267
0.166821
0.167383
0.168003
0.168631
0.169327
0.170033
0.170791
0.171544
0.172345
0.17319
0.173984
0.174894
0.17591
0.176776
0.177811
0.178954
0.180029
0.181277
0.182581
0.18395
0.18545
0.18721
0.189039
0.191174
0.193276
0.195679
0.198233
0.20127
0.204317
0.20788
0.211726
0.216309
0.221338
0.227571
0.234831
0.244656
0.258185
0.279653
0.311727
0.341952
0.376257
0.46131
0.525192
0.52126
0.450951
0.395407
0.36085
0.338
0.32108
0.307188
0.296016
0.286517
0.27828
0.270997
0.264451
0.258985
0.253762
0.249339
0.245175
0.241568
0.238299
0.235314
0.2328
0.230328
0.228336
0.226247
0.224651
0.222975
0.221744
0.220413
0.219431
0.218461
0.217418
0.21627
0.152586
0.152594
0.152602
0.152611
0.15262
0.152629
0.152638
0.152647
0.152657
0.152667
0.152677
0.152688
0.152699
0.15271
0.152722
0.152734
0.152747
0.15276
0.152773
0.152787
0.152801
0.152815
0.15283
0.152845
0.152861
0.152877
0.152893
0.15291
0.152927
0.152944
0.152962
0.15298
0.152999
0.153018
0.153038
0.153058
0.153078
0.153099
0.153121
0.153143
0.153165
0.153189
0.153213
0.153238
0.153265
0.153293
0.153321
0.15335
0.153382
0.153413
0.15344
0.153474
0.15351
0.153546
0.153582
0.153614
0.15365
0.15369
0.153735
0.153779
0.153818
0.153864
0.153908
0.153949
0.153999
0.154052
0.1541
0.154155
0.154208
0.154271
0.154332
0.154388
0.154446
0.154513
0.154585
0.154658
0.154721
0.154792
0.154875
0.154953
0.155033
0.155112
0.1552
0.155297
0.155395
0.155477
0.155573
0.155691
0.155807
0.155923
0.156028
0.15614
0.156281
0.156398
0.15652
0.156649
0.156797
0.156974
0.157119
0.157268
0.157447
0.157618
0.157815
0.158006
0.15816
0.158366
0.158578
0.158783
0.158992
0.159238
0.159517
0.15977
0.160004
0.1603
0.160611
0.160941
0.161272
0.161598
0.161925
0.162294
0.162663
0.163069
0.163501
0.16391
0.164344
0.164806
0.165306
0.165831
0.16638
0.166914
0.167494
0.16812
0.168722
0.169398
0.170125
0.170846
0.171575
0.172423
0.173242
0.174035
0.174978
0.175959
0.177065
0.178171
0.179346
0.180576
0.18197
0.183392
0.185085
0.186714
0.188614
0.190509
0.192822
0.195056
0.19769
0.2004
0.203626
0.206936
0.210928
0.215157
0.220364
0.226149
0.233558
0.242908
0.256527
0.27734
0.30727
0.335557
0.36018
0.430348
0.514785
0.528308
0.467431
0.405868
0.367301
0.342217
0.3244
0.310048
0.298206
0.288386
0.279639
0.272308
0.265858
0.259997
0.254838
0.250102
0.24591
0.242098
0.23876
0.235658
0.232969
0.230468
0.228331
0.226245
0.224572
0.222809
0.221477
0.220085
0.219066
0.218084
0.21727
0.216452
0.15248
0.152493
0.152507
0.152521
0.152535
0.15255
0.152565
0.15258
0.152596
0.152612
0.152628
0.152645
0.152662
0.15268
0.152698
0.152717
0.152736
0.152756
0.152776
0.152796
0.152817
0.152838
0.15286
0.152883
0.152905
0.152929
0.152952
0.152976
0.153001
0.153026
0.153051
0.153077
0.153103
0.153129
0.153156
0.153184
0.153211
0.15324
0.153269
0.153298
0.153327
0.153358
0.153389
0.15342
0.153452
0.153485
0.153519
0.153554
0.153589
0.153625
0.153663
0.153701
0.15374
0.153781
0.153823
0.153866
0.15391
0.153955
0.154001
0.154048
0.154097
0.154147
0.154199
0.154252
0.154305
0.154361
0.154417
0.154476
0.154537
0.154594
0.154668
0.154739
0.154794
0.154862
0.154942
0.15501
0.155083
0.155156
0.155237
0.155322
0.155393
0.155483
0.155582
0.155658
0.155741
0.155828
0.15595
0.156055
0.156155
0.156266
0.156381
0.156484
0.1566
0.156736
0.156876
0.156992
0.157131
0.157294
0.157428
0.157583
0.157764
0.157932
0.158097
0.158282
0.158496
0.15867
0.158868
0.159068
0.15929
0.159538
0.159763
0.160027
0.160327
0.160549
0.160832
0.161148
0.161451
0.161783
0.162129
0.162474
0.162867
0.16324
0.163612
0.164
0.164441
0.164935
0.165383
0.165837
0.166369
0.166947
0.167471
0.168053
0.168639
0.169255
0.169946
0.170643
0.171372
0.172131
0.172961
0.173842
0.174768
0.175773
0.176788
0.17792
0.179154
0.180413
0.181736
0.18326
0.184779
0.186497
0.18824
0.190298
0.192355
0.19474
0.197151
0.199986
0.202902
0.206398
0.210027
0.214462
0.219256
0.225264
0.232309
0.241808
0.255279
0.275659
0.304751
0.328652
0.345124
0.403037
0.501704
0.531207
0.485219
0.416431
0.373951
0.346658
0.327299
0.312382
0.300272
0.290185
0.281515
0.273893
0.267151
0.261191
0.255863
0.251155
0.246847
0.243047
0.239507
0.236365
0.23354
0.230947
0.228719
0.226537
0.224802
0.22299
0.221574
0.220105
0.218987
0.217926
0.216976
0.215921
0.152036
0.152046
0.152055
0.152065
0.152076
0.152086
0.152097
0.152108
0.152119
0.152131
0.152143
0.152156
0.152169
0.152182
0.152196
0.15221
0.152225
0.15224
0.152256
0.152272
0.152289
0.152306
0.152324
0.152342
0.15236
0.152379
0.152399
0.152419
0.152439
0.15246
0.152481
0.152503
0.152525
0.152548
0.152571
0.152595
0.152619
0.152644
0.15267
0.152696
0.152723
0.15275
0.152778
0.152807
0.152837
0.152867
0.152899
0.152931
0.152964
0.152999
0.153034
0.15307
0.153108
0.153147
0.153187
0.153229
0.153271
0.153316
0.153361
0.153408
0.153456
0.153507
0.153558
0.153611
0.153666
0.153722
0.15378
0.15384
0.153901
0.153964
0.15403
0.154097
0.154167
0.154237
0.154312
0.154387
0.154465
0.154545
0.154629
0.154714
0.154802
0.154892
0.154987
0.155086
0.155188
0.155291
0.155403
0.155514
0.155629
0.155749
0.155873
0.156001
0.156129
0.156265
0.156403
0.156548
0.156695
0.156854
0.157014
0.15718
0.157351
0.157538
0.157725
0.157918
0.158114
0.158325
0.158543
0.158765
0.158991
0.159234
0.159484
0.159742
0.160009
0.160297
0.160582
0.160884
0.161192
0.161519
0.161857
0.162221
0.162577
0.162949
0.163348
0.163745
0.164176
0.164618
0.165094
0.165573
0.166088
0.166613
0.167187
0.167767
0.168414
0.169059
0.169736
0.170423
0.171181
0.171969
0.172816
0.173685
0.174634
0.175589
0.176673
0.177778
0.178979
0.180239
0.181628
0.183026
0.184621
0.18626
0.188116
0.189984
0.192127
0.194306
0.196855
0.199458
0.202535
0.205727
0.209567
0.213676
0.218688
0.224396
0.231626
0.241082
0.254652
0.27497
0.302752
0.324159
0.335472
0.37645
0.482017
0.531282
0.49984
0.427589
0.381115
0.351582
0.33091
0.315296
0.302722
0.292173
0.283147
0.275353
0.268496
0.262399
0.25698
0.252074
0.24773
0.243731
0.240195
0.236886
0.23397
0.23126
0.228894
0.226699
0.224814
0.222985
0.221521
0.22003
0.21885
0.217736
0.216756
0.215586
0.152026
0.15204
0.152053
0.152068
0.152082
0.152097
0.152112
0.152127
0.152143
0.152158
0.152175
0.152191
0.152208
0.152226
0.152243
0.152262
0.15228
0.152299
0.152319
0.152339
0.152359
0.15238
0.152401
0.152423
0.152445
0.152468
0.152491
0.152515
0.152539
0.152564
0.152589
0.152615
0.152641
0.152668
0.152696
0.152724
0.152752
0.152781
0.152811
0.152841
0.152872
0.152904
0.152936
0.152969
0.153003
0.153037
0.153073
0.153109
0.153146
0.153184
0.153223
0.153262
0.153303
0.153345
0.153388
0.153432
0.153477
0.153524
0.153572
0.153621
0.153671
0.153722
0.153775
0.15383
0.153885
0.153943
0.154002
0.154062
0.154124
0.154188
0.154253
0.154321
0.15439
0.154461
0.154534
0.154609
0.154686
0.154765
0.154846
0.154931
0.155017
0.155106
0.155197
0.155292
0.155388
0.155491
0.155595
0.155704
0.155813
0.155931
0.156051
0.156176
0.156303
0.156437
0.156573
0.156716
0.15686
0.157014
0.157169
0.157333
0.1575
0.157675
0.157853
0.158043
0.158233
0.158435
0.158644
0.158859
0.159078
0.159314
0.159554
0.159801
0.160061
0.160333
0.160607
0.160903
0.161209
0.161523
0.161849
0.162198
0.16255
0.16293
0.163323
0.163731
0.164156
0.164604
0.165071
0.165546
0.166062
0.166591
0.167156
0.167732
0.168349
0.168977
0.169665
0.170365
0.171134
0.171907
0.17276
0.173614
0.174568
0.175545
0.176614
0.177701
0.178919
0.180159
0.181521
0.182956
0.18448
0.186154
0.187863
0.189826
0.191805
0.194101
0.196429
0.199188
0.202015
0.205404
0.208983
0.213295
0.218103
0.223952
0.231126
0.240725
0.254445
0.274682
0.301753
0.319643
0.326204
0.356674
0.461766
0.528281
0.512489
0.437378
0.387114
0.355475
0.333836
0.317664
0.30454
0.293748
0.28452
0.276531
0.269529
0.263326
0.2578
0.252861
0.248404
0.244415
0.240762
0.23749
0.234482
0.231759
0.229334
0.227066
0.225123
0.223276
0.221682
0.220189
0.218899
0.217659
0.216508
0.215238
0.151718
0.151729
0.15174
0.151751
0.151762
0.151774
0.151786
0.151799
0.151811
0.151824
0.151837
0.151851
0.151865
0.151879
0.151894
0.151909
0.151925
0.151941
0.151958
0.151975
0.151992
0.15201
0.152029
0.152048
0.152068
0.152088
0.152108
0.15213
0.152151
0.152174
0.152197
0.15222
0.152245
0.152269
0.152295
0.152321
0.152348
0.152375
0.152404
0.152433
0.152462
0.152493
0.152524
0.152556
0.152589
0.152622
0.152657
0.152692
0.152729
0.152766
0.152805
0.152844
0.152885
0.152927
0.152969
0.153014
0.153059
0.153106
0.153154
0.153204
0.153255
0.153308
0.153362
0.153418
0.153475
0.153534
0.153595
0.153658
0.153722
0.153788
0.153856
0.153927
0.153999
0.154074
0.15415
0.15423
0.154311
0.154395
0.154481
0.15457
0.154661
0.154756
0.154852
0.154953
0.155056
0.155163
0.155272
0.155386
0.155502
0.155624
0.155747
0.155877
0.156008
0.156146
0.156286
0.156434
0.156584
0.156742
0.156902
0.157071
0.157243
0.157424
0.157608
0.157802
0.157999
0.158208
0.15842
0.158645
0.158873
0.159115
0.159359
0.159621
0.159886
0.160167
0.160453
0.160758
0.161065
0.161395
0.16173
0.162085
0.162446
0.162832
0.163223
0.16364
0.164073
0.16452
0.165
0.165485
0.166008
0.166537
0.167111
0.16769
0.168322
0.16896
0.169656
0.170359
0.171126
0.171904
0.172754
0.173629
0.174575
0.175554
0.176607
0.177714
0.178895
0.180159
0.181495
0.182934
0.184434
0.186073
0.187805
0.189679
0.191701
0.193887
0.196304
0.198915
0.201858
0.205089
0.208803
0.21299
0.217886
0.22369
0.230961
0.240795
0.25511
0.275877
0.301078
0.315593
0.318935
0.337522
0.435901
0.52313
0.521602
0.449255
0.394723
0.360309
0.337444
0.320449
0.306886
0.295671
0.286172
0.277981
0.270811
0.264467
0.258818
0.253723
0.249197
0.245026
0.241363
0.237934
0.234923
0.232097
0.22962
0.227316
0.225311
0.22342
0.221784
0.220177
0.218787
0.217464
0.216246
0.21491
0.151674
0.151687
0.151701
0.151714
0.151729
0.151743
0.151757
0.151772
0.151787
0.151803
0.151818
0.151835
0.151851
0.151868
0.151886
0.151903
0.151922
0.15194
0.15196
0.151979
0.151999
0.15202
0.152041
0.152063
0.152085
0.152108
0.152131
0.152155
0.152179
0.152204
0.15223
0.152256
0.152283
0.15231
0.152338
0.152367
0.152396
0.152426
0.152457
0.152489
0.152521
0.152554
0.152588
0.152623
0.152658
0.152695
0.152732
0.15277
0.152809
0.152848
0.152889
0.152931
0.152974
0.153018
0.153063
0.153109
0.153156
0.153204
0.153254
0.153305
0.153357
0.15341
0.153465
0.153521
0.153579
0.153638
0.1537
0.153762
0.153826
0.153892
0.15396
0.154029
0.154101
0.154174
0.15425
0.154328
0.154408
0.15449
0.154576
0.154662
0.154753
0.154845
0.154941
0.155039
0.155141
0.155246
0.155353
0.155466
0.15558
0.1557
0.155822
0.155951
0.156081
0.156218
0.156357
0.156504
0.156653
0.15681
0.15697
0.157138
0.157309
0.15749
0.157673
0.157867
0.158064
0.158272
0.158484
0.158708
0.158935
0.159177
0.159421
0.159682
0.159945
0.160226
0.16051
0.160814
0.161121
0.16145
0.161783
0.16214
0.162501
0.162889
0.163282
0.163704
0.164131
0.164592
0.165056
0.165559
0.166066
0.166616
0.167171
0.167774
0.168384
0.169045
0.169715
0.170445
0.171186
0.171995
0.172819
0.173716
0.174632
0.175633
0.176661
0.177778
0.178941
0.180194
0.181507
0.182933
0.184411
0.186062
0.187746
0.189656
0.191616
0.193853
0.196199
0.198857
0.201733
0.205019
0.208679
0.212901
0.217771
0.223612
0.231084
0.241327
0.256122
0.276987
0.300513
0.31151
0.311954
0.324687
0.41183
0.517616
0.528376
0.459017
0.400959
0.364378
0.340252
0.322648
0.308638
0.297147
0.287422
0.279056
0.271765
0.265325
0.259591
0.254462
0.249815
0.24566
0.241867
0.238457
0.235389
0.232519
0.230059
0.227606
0.225595
0.223517
0.221825
0.220104
0.218712
0.217339
0.216103
0.214581
0.151512
0.151524
0.151536
0.151549
0.151561
0.151574
0.151587
0.151601
0.151615
0.151629
0.151643
0.151657
0.151672
0.151688
0.151704
0.15172
0.151737
0.151754
0.151771
0.151789
0.151808
0.151827
0.151847
0.151867
0.151887
0.151908
0.15193
0.151952
0.151975
0.151998
0.152022
0.152046
0.152071
0.152097
0.152124
0.152151
0.152179
0.152207
0.152237
0.152267
0.152298
0.152329
0.152362
0.152395
0.152429
0.152465
0.152501
0.152538
0.152576
0.152615
0.152655
0.152696
0.152738
0.152782
0.152827
0.152872
0.15292
0.152968
0.153018
0.153069
0.153122
0.153176
0.153231
0.153288
0.153347
0.153408
0.15347
0.153534
0.1536
0.153668
0.153738
0.153809
0.153884
0.15396
0.154039
0.154119
0.154203
0.154288
0.154377
0.154468
0.154563
0.154659
0.154759
0.154862
0.154969
0.155078
0.155191
0.155308
0.155428
0.155553
0.155681
0.155815
0.155951
0.156093
0.156238
0.156391
0.156546
0.156709
0.156874
0.157048
0.157225
0.157411
0.157601
0.1578
0.158003
0.158217
0.158434
0.158663
0.158896
0.159142
0.159392
0.159657
0.159925
0.16021
0.160499
0.160807
0.161119
0.161452
0.16179
0.162151
0.162518
0.16291
0.163309
0.163734
0.164168
0.164631
0.165103
0.165608
0.166123
0.166675
0.167238
0.167842
0.168459
0.169123
0.169801
0.170533
0.171281
0.172088
0.172917
0.173809
0.174736
0.175726
0.176767
0.177874
0.179047
0.180292
0.181623
0.18302
0.184541
0.186115
0.187861
0.189677
0.1917
0.193853
0.196234
0.198849
0.201784
0.205069
0.208789
0.213018
0.217955
0.223969
0.231748
0.24254
0.258098
0.279562
0.299871
0.306851
0.304954
0.312191
0.386886
0.506657
0.532269
0.471629
0.408757
0.369106
0.34373
0.325298
0.310833
0.298962
0.288973
0.280384
0.272905
0.266298
0.260453
0.25516
0.25049
0.246176
0.24237
0.238837
0.235725
0.232821
0.230265
0.227838
0.225717
0.223666
0.221909
0.220208
0.218718
0.21726
0.21588
0.214327
0.151484
0.151497
0.151511
0.151525
0.151539
0.151553
0.151568
0.151583
0.151598
0.151614
0.15163
0.151646
0.151662
0.151679
0.151697
0.151715
0.151733
0.151752
0.151771
0.151791
0.151811
0.151832
0.151853
0.151875
0.151898
0.15192
0.151944
0.151968
0.151992
0.152017
0.152043
0.152069
0.152096
0.152123
0.152152
0.15218
0.15221
0.15224
0.152271
0.152303
0.152336
0.152369
0.152403
0.152438
0.152474
0.152511
0.152548
0.152587
0.152626
0.152667
0.152709
0.152751
0.152795
0.15284
0.152886
0.152933
0.152981
0.153031
0.153082
0.153134
0.153188
0.153243
0.1533
0.153358
0.153418
0.153479
0.153542
0.153607
0.153674
0.153743
0.153813
0.153886
0.15396
0.154037
0.154116
0.154197
0.154281
0.154367
0.154456
0.154547
0.154642
0.154738
0.154839
0.154941
0.155048
0.155157
0.155271
0.155387
0.155508
0.155631
0.155761
0.155892
0.15603
0.15617
0.156317
0.156468
0.156623
0.156785
0.156951
0.157125
0.157301
0.157487
0.157676
0.157876
0.158078
0.158292
0.158509
0.158739
0.158972
0.159219
0.15947
0.159737
0.160007
0.160294
0.160586
0.160896
0.161211
0.161547
0.161888
0.162252
0.162621
0.163015
0.163415
0.163843
0.164278
0.164744
0.165217
0.165724
0.16624
0.166793
0.167357
0.167962
0.16858
0.169244
0.169921
0.170651
0.171397
0.172203
0.173031
0.173923
0.174847
0.175839
0.176877
0.177987
0.179155
0.180406
0.18172
0.183133
0.184618
0.186226
0.187926
0.189782
0.191773
0.193968
0.196368
0.199038
0.201991
0.205288
0.208989
0.213228
0.218232
0.224424
0.23261
0.244095
0.260444
0.281857
0.298268
0.302164
0.298087
0.302648
0.364533
0.495378
0.534061
0.482541
0.415229
0.373191
0.346509
0.327419
0.312544
0.300389
0.290189
0.281436
0.273833
0.267137
0.261182
0.255871
0.251079
0.246762
0.242916
0.239284
0.236213
0.233129
0.230637
0.22805
0.226004
0.22382
0.22207
0.220218
0.218674
0.217148
0.215734
0.214064
0.151387
0.151399
0.151412
0.151426
0.151439
0.151453
0.151467
0.151481
0.151495
0.15151
0.151525
0.151541
0.151556
0.151573
0.151589
0.151606
0.151624
0.151642
0.15166
0.151679
0.151699
0.151718
0.151739
0.15176
0.151781
0.151803
0.151826
0.151849
0.151873
0.151897
0.151922
0.151947
0.151973
0.152
0.152027
0.152055
0.152084
0.152114
0.152144
0.152175
0.152207
0.152239
0.152273
0.152307
0.152342
0.152378
0.152415
0.152454
0.152493
0.152533
0.152574
0.152616
0.15266
0.152705
0.152751
0.152798
0.152846
0.152897
0.152948
0.153001
0.153055
0.153111
0.153169
0.153228
0.153289
0.153352
0.153416
0.153483
0.153551
0.153622
0.153694
0.153769
0.153846
0.153925
0.154006
0.154091
0.154177
0.154266
0.154358
0.154453
0.154551
0.154651
0.154755
0.154861
0.154972
0.155084
0.155202
0.155322
0.155447
0.155574
0.155707
0.155843
0.155985
0.15613
0.156279
0.156435
0.156594
0.15676
0.15693
0.157107
0.157288
0.157477
0.15767
0.157873
0.158079
0.158296
0.158518
0.158751
0.158989
0.15924
0.159495
0.159766
0.160041
0.160332
0.160629
0.160944
0.161264
0.161604
0.16195
0.162317
0.162691
0.163089
0.163495
0.163926
0.164366
0.164835
0.165312
0.165822
0.166342
0.166899
0.167466
0.168074
0.168695
0.169363
0.170045
0.17078
0.171534
0.172345
0.173185
0.174083
0.175022
0.17602
0.177074
0.178188
0.17937
0.180611
0.18194
0.183332
0.184837
0.186425
0.188154
0.190006
0.192037
0.194245
0.196682
0.199358
0.202328
0.205638
0.209385
0.213715
0.218899
0.225452
0.234258
0.246653
0.263911
0.284072
0.296303
0.29685
0.290384
0.293094
0.34568
0.47914
0.534386
0.493439
0.422882
0.37782
0.349874
0.32993
0.314584
0.302077
0.291608
0.282639
0.274855
0.267983
0.261936
0.256471
0.251642
0.247218
0.243292
0.239664
0.236445
0.233406
0.230748
0.228145
0.225952
0.223742
0.221937
0.220048
0.218521
0.217021
0.215642
0.213852
0.151396
0.15141
0.151424
0.151438
0.151452
0.151467
0.151481
0.151497
0.151512
0.151528
0.151544
0.15156
0.151577
0.151594
0.151611
0.15163
0.151648
0.151667
0.151687
0.151707
0.151727
0.151748
0.15177
0.151792
0.151815
0.151838
0.151862
0.151886
0.151911
0.151936
0.151962
0.151989
0.152016
0.152044
0.152073
0.152102
0.152132
0.152163
0.152194
0.152227
0.15226
0.152293
0.152328
0.152363
0.1524
0.152437
0.152475
0.152514
0.152554
0.152596
0.152638
0.152681
0.152726
0.152771
0.152818
0.152867
0.152916
0.152967
0.153019
0.153073
0.153128
0.153185
0.153243
0.153304
0.153365
0.153429
0.153494
0.153562
0.153631
0.153702
0.153775
0.153851
0.153928
0.154008
0.15409
0.154175
0.154262
0.154352
0.154444
0.154539
0.154637
0.154738
0.154841
0.154949
0.155058
0.155172
0.155288
0.155409
0.155533
0.155662
0.155793
0.15593
0.156069
0.156215
0.156364
0.156519
0.156678
0.156844
0.157013
0.15719
0.157371
0.157561
0.157754
0.157958
0.158165
0.158384
0.158606
0.158841
0.159079
0.159332
0.159589
0.159861
0.160137
0.160431
0.160729
0.161045
0.161367
0.161709
0.162056
0.162426
0.162802
0.163202
0.163609
0.164043
0.164485
0.164957
0.165437
0.16595
0.166473
0.167032
0.167603
0.168215
0.168841
0.169512
0.170202
0.170939
0.171705
0.172517
0.17337
0.174269
0.175219
0.176219
0.177277
0.178391
0.179568
0.180814
0.182131
0.183538
0.185032
0.186646
0.188376
0.190264
0.192312
0.19456
0.197017
0.199726
0.202719
0.206066
0.209868
0.214311
0.219726
0.2267
0.23622
0.249589
0.267802
0.285406
0.292961
0.291427
0.282626
0.2845
0.328798
0.463487
0.53352
0.502659
0.429426
0.381988
0.352678
0.332045
0.316277
0.30349
0.292821
0.283692
0.27578
0.268814
0.262647
0.257122
0.252221
0.247695
0.243771
0.239998
0.236793
0.233625
0.230972
0.22833
0.226144
0.223916
0.222089
0.220181
0.218576
0.216929
0.215428
0.213744
0.15134
0.151353
0.151367
0.15138
0.151394
0.151408
0.151422
0.151437
0.151452
0.151467
0.151483
0.151498
0.151515
0.151531
0.151548
0.151566
0.151584
0.151602
0.151621
0.151641
0.151661
0.151681
0.151702
0.151724
0.151746
0.151769
0.151792
0.151816
0.151841
0.151866
0.151891
0.151918
0.151945
0.151972
0.152001
0.15203
0.152059
0.15209
0.152121
0.152153
0.152185
0.152219
0.152253
0.152289
0.152325
0.152362
0.1524
0.152439
0.15248
0.152521
0.152563
0.152607
0.152651
0.152698
0.152745
0.152793
0.152843
0.152895
0.152948
0.153002
0.153058
0.153116
0.153175
0.153237
0.153299
0.153364
0.153431
0.1535
0.15357
0.153643
0.153718
0.153795
0.153875
0.153956
0.154041
0.154127
0.154217
0.154309
0.154403
0.154501
0.1546
0.154704
0.15481
0.15492
0.155032
0.155148
0.155267
0.155391
0.155517
0.155648
0.155782
0.155921
0.156063
0.156212
0.156363
0.156521
0.156682
0.156851
0.157023
0.157204
0.157388
0.157581
0.157777
0.157984
0.158195
0.158417
0.158642
0.158881
0.159124
0.15938
0.159641
0.159917
0.160198
0.160495
0.160797
0.161117
0.161443
0.161789
0.16214
0.162513
0.162893
0.163297
0.163709
0.164146
0.164593
0.165068
0.165553
0.16607
0.166599
0.167163
0.167744
0.168358
0.169
0.169672
0.170382
0.171122
0.171909
0.172727
0.173599
0.174506
0.17547
0.176478
0.177545
0.178666
0.179851
0.181102
0.182434
0.18385
0.185374
0.187008
0.188784
0.190704
0.1928
0.195077
0.19757
0.2003
0.203327
0.206727
0.210636
0.215281
0.221058
0.228661
0.23915
0.253696
0.271892
0.285856
0.289087
0.284858
0.274014
0.276071
0.316045
0.443884
0.531287
0.510677
0.436803
0.386795
0.355897
0.334448
0.318173
0.305052
0.294122
0.284775
0.276707
0.269568
0.26333
0.257668
0.252702
0.248115
0.244109
0.240326
0.237084
0.233885
0.231226
0.22848
0.226303
0.223971
0.222104
0.22014
0.218498
0.216868
0.215271
0.21355
0.151366
0.151379
0.151393
0.151407
0.151422
0.151436
0.151451
0.151466
0.151482
0.151498
0.151514
0.15153
0.151547
0.151564
0.151582
0.1516
0.151619
0.151638
0.151658
0.151678
0.151698
0.15172
0.151742
0.151764
0.151787
0.15181
0.151835
0.151859
0.151885
0.15191
0.151937
0.151964
0.151992
0.152021
0.15205
0.15208
0.15211
0.152142
0.152174
0.152207
0.15224
0.152275
0.15231
0.152346
0.152384
0.152422
0.152461
0.152501
0.152542
0.152584
0.152627
0.152672
0.152718
0.152765
0.152813
0.152862
0.152913
0.152965
0.153019
0.153075
0.153131
0.15319
0.15325
0.153312
0.153375
0.153441
0.153508
0.153578
0.153649
0.153722
0.153797
0.153875
0.153955
0.154037
0.154121
0.154208
0.154298
0.15439
0.154484
0.154582
0.154681
0.154785
0.15489
0.155
0.155111
0.155228
0.155346
0.155469
0.155595
0.155726
0.15586
0.155999
0.156141
0.15629
0.156441
0.156599
0.15676
0.15693
0.157102
0.157283
0.157467
0.157661
0.157859
0.158067
0.158278
0.158502
0.158729
0.158969
0.159212
0.15947
0.159732
0.16001
0.160292
0.16059
0.160894
0.161216
0.161545
0.161889
0.162249
0.162618
0.163011
0.163409
0.163834
0.164265
0.164727
0.165197
0.165699
0.166211
0.16676
0.167321
0.167922
0.168536
0.169196
0.169874
0.170599
0.171349
0.172145
0.172977
0.173852
0.174771
0.175735
0.17675
0.177816
0.178942
0.18013
0.181393
0.182737
0.184179
0.185727
0.187403
0.18921
0.191171
0.193289
0.195594
0.198102
0.200866
0.203944
0.20744
0.211513
0.216431
0.222676
0.231037
0.242609
0.258341
0.275095
0.284466
0.284225
0.277249
0.265668
0.268435
0.304404
0.425413
0.528438
0.517894
0.443295
0.391045
0.358754
0.336573
0.31987
0.30646
0.295336
0.285838
0.277632
0.2704
0.264062
0.258284
0.253306
0.248529
0.244562
0.240569
0.237349
0.234031
0.231358
0.228541
0.226254
0.223904
0.222032
0.220068
0.218444
0.216785
0.215243
0.213364
0.151333
0.151346
0.151359
0.151373
0.151387
0.151401
0.151416
0.151431
0.151446
0.151461
0.151477
0.151493
0.15151
0.151526
0.151544
0.151561
0.15158
0.151598
0.151618
0.151638
0.151658
0.151679
0.1517
0.151722
0.151745
0.151768
0.151792
0.151816
0.151841
0.151867
0.151893
0.15192
0.151948
0.151976
0.152005
0.152035
0.152066
0.152097
0.152129
0.152162
0.152196
0.15223
0.152266
0.152302
0.152339
0.152378
0.152417
0.152457
0.152499
0.152541
0.152585
0.15263
0.152676
0.152724
0.152772
0.152822
0.152874
0.152927
0.152981
0.153037
0.153095
0.153154
0.153215
0.153278
0.153342
0.153409
0.153477
0.153547
0.153619
0.153694
0.15377