/*--------------------------------*- C++ -*----------------------------------*\
  =========                 |
  \\      /  F ield         | OpenFOAM: The Open Source CFD Toolbox
   \\    /   O peration     | Website:  https://openfoam.org
    \\  /    A nd           | Version:  7
     \\/     M anipulation  |
\*---------------------------------------------------------------------------*/
FoamFile
{
    version     2.0;
    format      ascii;
    class       volVectorField;
    location    "1";
    object      wallShearStress;
}
// * * * * * * * * * * * * * * * * * * * * * * * * * * * * * * * * * * * * * //

dimensions      [0 2 -2 0 0 0 0];

internalField   uniform (0 0 0);

boundaryField
{
    frontAndBack
    {
        type            empty;
    }
    farfield
    {
        type            calculated;
        value           uniform (0 0 0);
    }
    airfoil
    {
        type            calculated;
        value           nonuniform List<vector> 
341
(
(-15.067 -0.37537 -4.17866e-23)
(-16.3346 -0.415695 -2.12318e-22)
(-15.6221 -0.26924 -5.93201e-18)
(-15.0286 -0.1555 2.52731e-37)
(-14.7808 -0.113239 -8.50773e-22)
(-14.6785 -0.0741986 8.06285e-22)
(-14.5253 -0.0296709 4.15136e-19)
(-14.3109 0.0228172 1.72117e-18)
(-14.0323 0.0731107 3.65154e-18)
(-13.8231 0.113801 1.00004e-23)
(-13.6226 0.151785 -3.70981e-18)
(-13.4355 0.186753 -3.73858e-18)
(-13.2553 0.219313 3.77362e-18)
(-13.0817 0.25056 3.81435e-21)
(-12.8949 0.280985 -1.91533e-21)
(-12.7092 0.308263 1.94787e-21)
(-12.5423 0.333617 8.01798e-18)
(-12.376 0.356515 -1.98478e-21)
(-12.2254 0.378728 -8.26865e-18)
(-12.0529 0.400314 7.52316e-37)
(-11.8902 0.420714 7.56078e-35)
(-11.7252 0.438436 -8.56616e-18)
(-11.5721 0.45513 -8.64825e-18)
(-11.4262 0.470367 4.28269e-21)
(-11.2861 0.485744 -4.34704e-21)
(-11.1311 0.500087 1.80422e-17)
(-10.9776 0.513166 4.60286e-21)
(-10.8344 0.524676 -1.84056e-17)
(-10.6962 0.535576 4.55562e-21)
(-10.5704 0.545193 -4.57678e-21)
(-10.4397 0.555323 4.6834e-21)
(-10.3019 0.564789 -3.8623e-17)
(-10.1656 0.573101 -4.5892e-21)
(-10.037 0.580526 4.79773e-21)
(-9.91484 0.587357 -1.99235e-17)
(-9.79663 0.592936 -5.09937e-21)
(-9.68435 0.599587 2.44503e-36)
(-9.55897 0.605248 2.05968e-17)
(-9.43686 0.610533 -4.16235e-17)
(-9.31797 0.614511 2.02948e-22)
(-9.20556 0.618475 7.5805e-34)
(-9.09686 0.62131 5.26907e-21)
(-8.99714 0.624753 -2.17076e-17)
(-8.88804 0.62835 -5.3294e-21)
(-8.77677 0.630991 2.21246e-17)
(-8.67019 0.633276 -1.31655e-36)
(-8.5681 0.635021 -1.74487e-39)
(-8.47265 0.636642 -5.60608e-21)
(-8.3828 0.637996 -2.31566e-17)
(-8.29328 0.639971 -5.646e-21)
(-8.19518 0.64135 2.34351e-17)
(-8.09801 0.642211 4.74358e-17)
(-8.00363 0.642681 -1.1716e-20)
(-7.91404 0.643114 5.91655e-21)
(-7.82554 0.642785 2.86986e-41)
(-7.74475 0.643216 6.26063e-21)
(-7.65589 0.643367 2.6206e-23)
(-7.56416 0.643214 -6.09991e-21)
(-7.47492 0.642442 -2.53456e-17)
(-7.38914 0.641815 -5.13284e-17)
(-7.30612 0.640484 2.6002e-17)
(-7.22722 0.639493 -6.41749e-21)
(-7.15149 0.638408 5.24437e-17)
(-7.07023 0.6379 6.23562e-21)
(-6.98691 0.636307 -6.50016e-21)
(-6.90826 0.635221 -2.70211e-17)
(-6.83205 0.633452 -3.76158e-36)
(-6.76055 0.632253 6.57842e-21)
(-6.69248 0.630545 -2.81444e-17)
(-6.62593 0.629758 6.7777e-21)
(-6.55185 0.628171 -2.79864e-17)
(-6.47838 0.626738 -2.83595e-17)
(-6.40575 0.624524 7.00452e-21)
(-6.33689 0.622806 7.12721e-21)
(-6.26878 0.620332 2.95554e-17)
(-6.20616 0.618635 2.99052e-17)
(-6.13999 0.61655 5.84861e-17)
(-6.06917 0.614658 -1.57986e-35)
(-5.99806 0.611919 -3.00927e-36)
(-5.93037 0.609722 -6.1013e-17)
(-5.86454 0.606843 -3.09667e-17)
(-5.80262 0.604626 -3.14406e-17)
(-5.74341 0.601973 -3.14949e-17)
(-5.68316 0.6003 -2.47813e-33)
(-5.6185 0.597628 3.13649e-17)
(-5.55727 0.595623 -9.0278e-36)
(-5.49736 0.592904 -3.23565e-17)
(-5.44173 0.590966 8.01394e-21)
(-5.38764 0.588415 -3.34054e-17)
(-5.33702 0.58682 -1.20185e-20)
(-5.28179 0.584782 -6.5228e-17)
(-5.22586 0.582915 1.05626e-23)
(-5.17178 0.580528 -3.37165e-17)
(-5.12068 0.578719 4.70198e-38)
(-5.07143 0.576254 -3.49003e-17)
(-5.02627 0.574588 -6.09376e-35)
(-4.9794 0.572641 -4.13536e-21)
(-4.92907 0.571168 3.44453e-17)
(-4.87916 0.568871 4.70198e-38)
(-4.8326 0.567266 3.57276e-17)
(-4.78779 0.564913 4.4412e-21)
(-4.74752 0.563376 -2.25695e-36)
(-4.70836 0.561654 3.57613e-17)
(-4.66638 0.560631 4.3669e-21)
(-4.62304 0.559195 -7.29416e-17)
(-4.58197 0.557361 -3.72348e-17)
(-4.54438 0.556205 -4.64762e-21)
(-4.50877 0.554513 -3.88791e-17)
(-4.47626 0.553789 4.55326e-21)
(-4.43918 0.553067 -4.5269e-21)
(-4.40113 0.552009 7.77609e-34)
(-4.36586 0.550842 -6.01853e-36)
(-4.33446 0.549954 7.97763e-17)
(-4.30709 0.548804 9.95525e-21)
(-4.28313 0.549217 -4.60084e-21)
(-4.2558 0.549594 -3.87536e-17)
(-4.23495 0.550314 3.98562e-17)
(-4.22232 0.551825 -5.01121e-21)
(-4.22001 0.55385 -4.22752e-17)
(-4.22395 0.5575 3.93577e-17)
(-4.2243 0.56134 -4.81284e-21)
(-4.21425 0.563419 -4.10798e-17)
(-4.20718 0.56546 4.25869e-17)
(-4.19486 0.566189 4.36677e-17)
(-4.20529 0.571098 2.40903e-21)
(-4.21965 0.577024 -4.12531e-17)
(-4.26054 0.586216 2.63677e-21)
(-4.28774 0.591963 -4.53619e-17)
(-4.33032 0.601409 8.01202e-17)
(-4.34627 0.607845 4.21278e-17)
(-4.42428 0.622121 -2.74814e-21)
(-4.51811 0.637216 -8.64031e-17)
(-4.62168 0.656197 1.26778e-21)
(-4.75371 0.678326 -2.81485e-21)
(-4.92301 0.70548 1.27508e-21)
(-5.28628 0.762904 -3.58732e-42)
(-5.90741 0.85737 1.27134e-21)
(-7.8674 1.56746 4.83873e-17)
(-28.9519 -98.8778 1.43507e-16)
(-52.1175 -60.4414 1.36622e-16)
(-43.4496 -31.4627 -9.92753e-17)
(-33.6887 -18.1582 8.49253e-17)
(-28.3759 -12.3464 4.68152e-17)
(-26.9529 -9.93034 -3.48544e-22)
(-25.8631 -8.21146 3.89153e-39)
(-26.3182 -7.36503 1.20371e-35)
(-26.0514 -6.5157 -5.53156e-17)
(-25.7052 -5.78901 -3.10406e-33)
(-25.0822 -5.13904 -1.01788e-33)
(-23.8801 -4.44172 3.06291e-17)
(-23.4064 -3.97007 3.3106e-17)
(-22.6854 -3.52633 1.00648e-21)
(-22.0125 -3.13378 -3.34799e-17)
(-21.5287 -2.81083 1.12235e-21)
(-21.0817 -2.53346 -7.2586e-17)
(-20.479 -2.25344 -3.65952e-17)
(-20.2093 -2.04151 1.18846e-21)
(-19.5999 -1.81701 -1.98045e-17)
(-19.3523 -1.64224 -1.98926e-17)
(-18.9066 -1.46416 2.05772e-17)
(-18.5488 -1.30829 -1.29883e-21)
(-18.2132 -1.16825 6.62562e-22)
(-17.9002 -1.03742 2.1675e-17)
(-17.531 -0.898952 -1.10288e-17)
(-17.0076 -0.752217 2.09517e-17)
(-16.7851 -0.67146 3.67833e-23)
(-16.7132 -0.631703 1.64992e-34)
(-17.1533 -0.574169 -1.14678e-17)
(-15.0613 -0.217171 6.01308e-23)
(25.2952 -86.0524 2.06176e-16)
(5.72146 -6.14 -6.00746e-16)
(-27.0327 19.9394 -3.73993e-20)
(-26.9332 14.8306 -5.77327e-16)
(-25.8872 11.548 -1.49106e-21)
(-22.9977 8.63077 -1.20295e-16)
(-21.3761 6.97769 -1.10881e-16)
(-19.3206 5.53651 1.08561e-16)
(-18.0758 4.63096 1.03569e-16)
(-16.7719 3.85717 4.47514e-23)
(-15.819 3.29901 -5.03544e-17)
(-14.8315 2.80898 -4.77139e-17)
(-14.1295 2.44226 6.50003e-22)
(-13.4002 2.12028 -9.61726e-17)
(-12.8771 1.86556 -1.41423e-21)
(-12.2619 1.62776 1.49932e-21)
(-11.9383 1.45712 4.75037e-17)
(-11.4181 1.27675 4.63184e-17)
(-11.1655 1.14417 -1.47994e-21)
(-10.7922 1.01464 2.39567e-17)
(-10.5702 0.90895 1.44188e-21)
(-10.3184 0.809161 1.45727e-21)
(-10.1074 0.721724 2.44824e-17)
(-9.97645 0.647388 -7.37644e-22)
(-9.80643 0.574714 2.3977e-17)
(-9.75054 0.50463 7.30159e-22)
(-9.40053 0.417775 -1.12548e-17)
(-9.52973 0.384762 -1.15543e-17)
(-9.34401 0.354042 -1.33086e-17)
(-10.8952 0.363502 -1.19125e-17)
(-8.71998 0.133662 -2.41923e-22)
(-8.17086 0.201946 -7.17465e-43)
(-10.031 0.253917 0)
(-9.82013 0.172333 0)
(-9.73065 0.100989 -8.86048e-35)
(-9.73154 0.074479 -1.3563e-34)
(-9.9773 0.049537 -8.02365e-22)
(-10.1855 0.0210445 -1.3647e-24)
(-10.3698 -0.015411 8.0692e-22)
(-10.4397 -0.053751 -1.75132e-18)
(-10.4338 -0.0855053 -2.25424e-24)
(-10.4574 -0.11643 8.57613e-22)
(-10.4412 -0.145302 -8.81621e-38)
(-10.3993 -0.171987 -3.53224e-18)
(-10.3477 -0.197971 -3.60228e-18)
(-10.2839 -0.223981 -1.35699e-34)
(-10.2156 -0.24818 -7.29276e-18)
(-10.1521 -0.2707 -7.31983e-18)
(-10.0834 -0.291734 2.82119e-37)
(-10.0376 -0.311904 7.10489e-34)
(-9.98615 -0.332564 1.50549e-23)
(-9.91727 -0.351983 6.58277e-37)
(-9.85291 -0.370191 1.52129e-17)
(-9.79147 -0.387183 -7.64552e-18)
(-9.74255 -0.40347 -7.67904e-18)
(-9.69537 -0.419003 7.76457e-18)
(-9.6445 -0.435266 9.40395e-38)
(-9.58025 -0.450094 -7.97803e-34)
(-9.52356 -0.464185 2.42791e-33)
(-9.46879 -0.477381 -3.19691e-17)
(-9.41819 -0.489773 1.96137e-21)
(-9.38204 -0.502079 -1.62346e-17)
(-9.33249 -0.514837 -1.64005e-17)
(-9.27701 -0.526633 1.64914e-17)
(-9.22259 -0.537561 4.10069e-21)
(-9.17056 -0.547834 9.39248e-38)
(-9.12658 -0.55772 5.50402e-23)
(-9.08909 -0.567163 -2.04477e-40)
(-9.05019 -0.57732 -1.88079e-37)
(-8.9988 -0.586817 1.72139e-17)
(-8.94636 -0.595436 -1.73341e-17)
(-8.89905 -0.603575 -1.7476e-17)
(-8.85518 -0.611269 -1.76179e-17)
(-8.81823 -0.618681 -9.85319e-24)
(-8.78671 -0.626492 4.3527e-21)
(-8.74351 -0.634408 1.79427e-17)
(-8.69423 -0.641199 -1.80842e-17)
(-8.64975 -0.647783 1.82436e-17)
(-8.60658 -0.653813 -4.48667e-21)
(-8.56962 -0.659738 1.85709e-17)
(-8.53835 -0.665678 -9.15007e-21)
(-8.5054 -0.671929 -9.9018e-24)
(-8.46416 -0.677877 4.59545e-21)
(-8.42047 -0.683093 4.64648e-21)
(-8.38069 -0.688201 -4.74898e-21)
(-8.34172 -0.692865 3.73337e-34)
(-8.30929 -0.697653 1.95684e-17)
(-8.27891 -0.7023 -5.29255e-34)
(-8.24714 -0.707585 -1.95919e-17)
(-8.20511 -0.712002 1.0538e-23)
(-8.16565 -0.716174 1.99722e-17)
(-8.12652 -0.719914 4.93267e-21)
(-8.09264 -0.723675 2.03919e-17)
(-8.0607 -0.727234 -5.03979e-21)
(-8.03399 -0.730994 2.06837e-17)
(-8.00418 -0.735289 -5.0116e-21)
(-7.96512 -0.73868 -2.07585e-17)
(-7.9293 -0.74198 2.09833e-17)
(-7.89267 -0.74484 -2.12191e-17)
(-7.86122 -0.747857 2.14655e-17)
(-7.83016 -0.750602 2.17282e-17)
(-7.80487 -0.753752 6.01853e-36)
(-7.77386 -0.757113 -1.84049e-34)
(-7.73704 -0.75979 -5.64237e-36)
(-7.70111 -0.762239 -2.20505e-17)
(-7.66657 -0.764488 2.23221e-17)
(-7.63464 -0.766678 2.26113e-17)
(-7.60536 -0.768841 -1.11823e-20)
(-7.57953 -0.771224 -2.28123e-17)
(-7.54974 -0.774015 2.25872e-17)
(-7.51197 -0.775888 -4.46688e-37)
(-7.47763 -0.777802 2.3179e-17)
(-7.44151 -0.779188 -2.86426e-21)
(-7.41087 -0.780854 1.16914e-34)
(-7.37971 -0.782207 -2.95277e-21)
(-7.35439 -0.784121 2.91939e-21)
(-7.32182 -0.786036 -2.36997e-17)
(-7.28518 -0.7874 2.40368e-17)
(-7.24787 -0.788395 2.98082e-21)
(-7.21268 -0.789337 -5.95275e-21)
(-7.17844 -0.79014 -7.44641e-24)
(-7.14686 -0.790977 3.11448e-21)
(-7.11769 -0.792202 2.50109e-17)
(-7.08007 -0.793274 3.04501e-21)
(-7.03925 -0.79371 -3.08602e-21)
(-6.99765 -0.793737 -3.00927e-36)
(-6.9587 -0.793743 2.61697e-17)
(-6.91968 -0.793419 -2.66325e-17)
(-6.88696 -0.79353 -2.71126e-17)
(-6.85083 -0.793803 -8.96562e-24)
(-6.80707 -0.793732 -2.62826e-17)
(-6.75852 -0.792702 -3.00927e-36)
(-6.71233 -0.791592 -3.33568e-21)
(-6.66572 -0.790055 -2.78182e-17)
(-6.62335 -0.788684 -3.47008e-21)
(-6.5823 -0.787413 3.39156e-21)
(-6.53611 -0.786511 2.24722e-33)
(-6.47838 -0.784058 -1.16158e-33)
(-6.42304 -0.781535 2.85394e-17)
(-6.3652 -0.778332 0)
(-6.31023 -0.775135 2.98621e-17)
(-6.25689 -0.771973 -5.92112e-17)
(-6.19646 -0.769 2.85791e-17)
(-6.1221 -0.764222 -2.92933e-17)
(-6.0476 -0.758932 -3.67648e-21)
(-5.97162 -0.752928 -1.52734e-23)
(-5.89736 -0.74664 -3.17104e-17)
(-5.82496 -0.740567 3.00927e-36)
(-5.7404 -0.73416 6.03169e-17)
(-5.63813 -0.725066 -3.10938e-17)
(-5.53751 -0.715574 3.20889e-17)
(-5.43074 -0.704617 -3.31517e-17)
(-5.3314 -0.694148 2.0314e-21)
(-5.21883 -0.683062 3.1279e-17)
(-5.08268 -0.668967 -3.24875e-17)
(-4.93892 -0.653102 -3.37954e-17)
(-4.78646 -0.6354 2.1428e-21)
(-4.6388 -0.617854 -3.45897e-17)
(-4.46848 -0.598598 3.30424e-17)
(-4.26556 -0.574441 3.4754e-17)
(-4.04183 -0.546489 3.66479e-17)
(-3.82672 -0.518812 -1.88079e-37)
(-3.58425 -0.48851 3.41582e-17)
(-3.29985 -0.452177 -2.24727e-21)
(-2.92418 -0.401556 2.40135e-21)
(-2.69481 -0.371277 2.27441e-21)
(-2.1345 -0.294641 -3.73321e-17)
(-1.89887 -0.263348 2.09904e-17)
(-1.21665 -0.167352 2.29171e-21)
(-0.537848 -0.073064 1.55746e-23)
(-0.899199 -0.122974 3.92454e-17)
(2.87175 0.0162895 -1.50463e-36)
)
;
    }
}


// ************************************************************************* //
