# p  FACE_DATA 341
#  x  y  z  p
0.253551 0.0594249 0.5 -1014.36
0.260625 0.059604 0.5 -1053.84
0.268301 0.0597641 0.5 -1088.44
0.275825 0.0598682 0.5 -1069.79
0.282831 0.059928 0.5 -1040.86
0.290299 0.0599719 0.5 -1028.89
0.298014 0.0599954 0.5 -1019.51
0.305661 0.0599931 0.5 -1011.82
0.313016 0.0599637 0.5 -1001.07
0.3202 0.0599102 0.5 -987.524
0.327394 0.0598346 0.5 -975.446
0.334592 0.0597382 0.5 -963.338
0.341788 0.059622 0.5 -951.098
0.348891 0.0594882 0.5 -939.678
0.355903 0.0593371 0.5 -928.568
0.362912 0.0591677 0.5 -916.293
0.369915 0.058981 0.5 -903.952
0.376908 0.0587783 0.5 -892.116
0.383848 0.0585616 0.5 -880.58
0.39071 0.0583318 0.5 -869.631
0.397536 0.0580877 0.5 -857.905
0.404349 0.0578293 0.5 -846.246
0.411146 0.0575577 0.5 -834.46
0.417921 0.0572738 0.5 -822.872
0.424635 0.05698 0.5 -811.831
0.431287 0.0566758 0.5 -801.135
0.437919 0.0563599 0.5 -789.788
0.444529 0.056033 0.5 -778.287
0.451115 0.055696 0.5 -766.95
0.457672 0.0553498 0.5 -755.85
0.464179 0.0549959 0.5 -745.421
0.47064 0.0546337 0.5 -734.886
0.477077 0.0542621 0.5 -723.957
0.483487 0.0538822 0.5 -712.943
0.489866 0.0534947 0.5 -702.133
0.496211 0.0531004 0.5 -691.509
0.50252 0.0526998 0.5 -681.245
0.508797 0.0522921 0.5 -671.174
0.515045 0.0518774 0.5 -660.673
0.52126 0.0514563 0.5 -650.16
0.52744 0.0510296 0.5 -639.714
0.533582 0.0505981 0.5 -629.424
0.539695 0.0501616 0.5 -619.404
0.545788 0.0497191 0.5 -609.762
0.551854 0.0492707 0.5 -599.792
0.557885 0.0488177 0.5 -589.722
0.563876 0.0483607 0.5 -579.641
0.569827 0.0479005 0.5 -569.697
0.575737 0.0474373 0.5 -559.954
0.58164 0.0469687 0.5 -550.514
0.587536 0.0464941 0.5 -541.096
0.593393 0.0460162 0.5 -531.441
0.599208 0.0455357 0.5 -521.752
0.60498 0.045053 0.5 -512.139
0.610706 0.0445687 0.5 -502.682
0.616408 0.0440814 0.5 -493.345
0.622117 0.043588 0.5 -484.288
0.627812 0.04309 0.5 -474.964
0.633463 0.0425903 0.5 -465.503
0.639069 0.0420895 0.5 -456.06
0.644626 0.0415881 0.5 -446.709
0.650134 0.0410868 0.5 -437.496
0.655639 0.0405812 0.5 -428.422
0.661165 0.0400689 0.5 -419.491
0.666665 0.039554 0.5 -410.301
0.672117 0.0390389 0.5 -401.053
0.677519 0.038524 0.5 -391.842
0.682868 0.0380099 0.5 -382.723
0.688165 0.037497 0.5 -373.705
0.693484 0.0369779 0.5 -364.786
0.698837 0.0364512 0.5 -355.825
0.704147 0.0359241 0.5 -346.683
0.709405 0.0353979 0.5 -337.534
0.714609 0.0348733 0.5 -328.43
0.719757 0.0343505 0.5 -319.416
0.724855 0.0338293 0.5 -310.48
0.729999 0.0332999 0.5 -301.615
0.73518 0.0327625 0.5 -292.572
0.740306 0.0322267 0.5 -283.37
0.745375 0.0316932 0.5 -274.152
0.750386 0.0311622 0.5 -264.972
0.755336 0.0306343 0.5 -255.872
0.76026 0.0301061 0.5 -246.803
0.765241 0.0295683 0.5 -237.746
0.770246 0.0290241 0.5 -228.454
0.775191 0.0284829 0.5 -219.04
0.780073 0.027945 0.5 -209.626
0.784891 0.0274108 0.5 -200.25
0.789645 0.0268807 0.5 -190.944
0.794414 0.0263459 0.5 -181.583
0.799254 0.0257999 0.5 -172.115
0.804082 0.0252514 0.5 -162.353
0.808843 0.0247071 0.5 -152.509
0.813536 0.0241673 0.5 -142.662
0.81816 0.0236326 0.5 -132.866
0.822721 0.0231023 0.5 -123.116
0.827366 0.0225594 0.5 -113.236
0.832084 0.0220045 0.5 -103.016
0.836729 0.0214548 0.5 -92.5963
0.841299 0.0209107 0.5 -82.1684
0.845793 0.0203728 0.5 -71.7496
0.85021 0.0198415 0.5 -61.3945
0.854677 0.0193015 0.5 -50.8638
0.859239 0.0187469 0.5 -40.0786
0.863766 0.0181934 0.5 -28.9473
0.868209 0.0176469 0.5 -17.7709
0.872568 0.017108 0.5 -6.59825
0.87684 0.0165772 0.5 4.50335
0.881165 0.0160373 0.5 15.8819
0.885597 0.0154808 0.5 27.6305
0.889995 0.0149253 0.5 39.8208
0.894296 0.0143788 0.5 52.0699
0.8985 0.013842 0.5 64.2814
0.902612 0.0133146 0.5 76.4637
0.90685 0.0127685 0.5 89.0628
0.911199 0.0122047 0.5 102.34
0.915436 0.0116524 0.5 115.864
0.919558 0.0111121 0.5 129.356
0.923564 0.0105848 0.5 142.761
0.92766 0.0100432 0.5 156.657
0.931889 0.00948105 0.5 171.213
0.936032 0.00892713 0.5 186.237
0.940034 0.00838932 0.5 201.152
0.943918 0.00786528 0.5 216.052
0.947957 0.00731753 0.5 231.687
0.952111 0.00675118 0.5 248.401
0.956082 0.0062066 0.5 265.171
0.959868 0.005685 0.5 281.712
0.963806 0.00514008 0.5 299.206
0.967884 0.00457263 0.5 317.956
0.971729 0.00403453 0.5 336.805
0.97552 0.00350184 0.5 356.021
0.979458 0.0029459 0.5 376.553
0.983267 0.00240536 0.5 397.246
0.98706 0.00186472 0.5 420.852
0.990882 0.00131704 0.5 440.842
0.994678 0.000770466 0.5 475.413
0.99832 0.00024378 0.5 478.584
0.00133235 0.00449653 0.5 3725.38
0.00576479 0.0125392 0.5 1727.4
0.0127073 0.018847 0.5 283.054
0.0207688 0.0238748 0.5 -333.228
0.0291543 0.0279559 0.5 -647.462
0.037672 0.0313759 0.5 -858.656
0.0464094 0.0343841 0.5 -972.329
0.0551576 0.0370177 0.5 -1062.41
0.0639069 0.0393539 0.5 -1120.68
0.0727041 0.0414595 0.5 -1158.45
0.081414 0.0433437 0.5 -1189.08
0.090183 0.0450639 0.5 -1208
0.098871 0.0466203 0.5 -1223.55
0.107395 0.0480148 0.5 -1230.94
0.116087 0.049318 0.5 -1238.41
0.124618 0.0504925 0.5 -1240.71
0.132994 0.0515502 0.5 -1242.22
0.141535 0.0525408 0.5 -1243.65
0.149928 0.053435 0.5 -1243.92
0.158135 0.0542362 0.5 -1243.07
0.166435 0.0549791 0.5 -1231.66
0.174718 0.0556571 0.5 -1211.17
0.182824 0.0562624 0.5 -1187.67
0.190865 0.0568083 0.5 -1167.34
0.198976 0.0573076 0.5 -1151.19
0.20712 0.0577564 0.5 -1142.66
0.215524 0.0581602 0.5 -1134.72
0.224086 0.0585239 0.5 -1109.95
0.231971 0.0588335 0.5 -1104.36
0.239768 0.0591111 0.5 -1106.66
0.246955 0.0592927 0.5 -1150.27
0.00133235 -0.00449653 0.5 3725.14
0.00576479 -0.0125392 0.5 1734.86
0.0127073 -0.018847 0.5 273.378
0.0207688 -0.0238748 0.5 -337.563
0.0291543 -0.0279559 0.5 -651.517
0.037672 -0.0313759 0.5 -849.904
0.0464094 -0.0343841 0.5 -982.762
0.0551576 -0.0370177 0.5 -1065.58
0.0639069 -0.0393539 0.5 -1119.67
0.0727041 -0.0414595 0.5 -1160.45
0.081414 -0.0433437 0.5 -1189.98
0.090183 -0.0450639 0.5 -1209.66
0.098871 -0.0466203 0.5 -1223.81
0.107395 -0.0480148 0.5 -1231.97
0.116087 -0.049318 0.5 -1238.13
0.124618 -0.0504925 0.5 -1240.81
0.132994 -0.0515502 0.5 -1240.65
0.141535 -0.0525408 0.5 -1241.46
0.149928 -0.053435 0.5 -1238.65
0.158135 -0.0542362 0.5 -1238.73
0.166435 -0.0549791 0.5 -1236.01
0.174718 -0.0556571 0.5 -1231.66
0.182824 -0.0562624 0.5 -1215.43
0.190865 -0.0568083 0.5 -1192.63
0.198976 -0.0573076 0.5 -1165.3
0.20712 -0.0577564 0.5 -1145.61
0.215524 -0.0581602 0.5 -1129.72
0.224086 -0.0585239 0.5 -1103.77
0.231971 -0.0588335 0.5 -1098.3
0.239768 -0.0591111 0.5 -1101.57
0.246955 -0.0592927 0.5 -1148.1
0.253478 -0.0594229 0.5 -1011.09
0.260394 -0.0595984 0.5 -1051.11
0.267845 -0.0597569 0.5 -1086.11
0.275233 -0.059862 0.5 -1070.78
0.282135 -0.059923 0.5 -1040.91
0.289403 -0.0599678 0.5 -1029.12
0.296942 -0.0599937 0.5 -1019.98
0.304465 -0.0599955 0.5 -1011.72
0.311708 -0.0599711 0.5 -1002.86
0.318744 -0.0599229 0.5 -989.423
0.325783 -0.0598535 0.5 -977.313
0.332827 -0.0597638 0.5 -965.7
0.339871 -0.0596549 0.5 -953.961
0.346848 -0.0595287 0.5 -942.516
0.353736 -0.0593859 0.5 -931.518
0.360596 -0.0592257 0.5 -920.095
0.367453 -0.0590487 0.5 -908.114
0.3743 -0.0588558 0.5 -896.279
0.381124 -0.0586486 0.5 -884.621
0.38787 -0.0584289 0.5 -874.099
0.394554 -0.0581963 0.5 -862.992
0.401228 -0.0579495 0.5 -851.369
0.407888 -0.0576896 0.5 -839.775
0.41453 -0.0574175 0.5 -828.451
0.421133 -0.0571349 0.5 -817.487
0.427675 -0.0568427 0.5 -807.025
0.434175 -0.0565398 0.5 -796.138
0.440657 -0.0562259 0.5 -784.885
0.447118 -0.0559019 0.5 -773.889
0.453553 -0.0555685 0.5 -762.901
0.459952 -0.0552271 0.5 -752.161
0.466305 -0.054878 0.5 -742.12
0.472621 -0.0545205 0.5 -731.597
0.478913 -0.0541543 0.5 -721.028
0.485178 -0.0537804 0.5 -710.293
0.491413 -0.0533994 0.5 -699.709
0.497615 -0.0530121 0.5 -689.375
0.503783 -0.0526186 0.5 -679.492
0.509921 -0.0522183 0.5 -669.621
0.51603 -0.0518112 0.5 -659.324
0.522108 -0.0513982 0.5 -648.981
0.528152 -0.05098 0.5 -638.761
0.534159 -0.0505573 0.5 -628.733
0.54014 -0.0501296 0.5 -618.982
0.546102 -0.0496961 0.5 -609.622
0.552038 -0.0492571 0.5 -599.811
0.557939 -0.0488136 0.5 -589.895
0.563803 -0.0483664 0.5 -580.049
0.569628 -0.047916 0.5 -570.319
0.575412 -0.047463 0.5 -560.803
0.58119 -0.0470047 0.5 -551.599
0.586964 -0.0465405 0.5 -542.377
0.5927 -0.0460731 0.5 -532.924
0.598397 -0.0456031 0.5 -523.463
0.604052 -0.045131 0.5 -514.06
0.609664 -0.0446572 0.5 -504.802
0.615243 -0.0441814 0.5 -495.693
0.620829 -0.0436999 0.5 -486.804
0.626413 -0.0432129 0.5 -477.738
0.631955 -0.0427242 0.5 -468.501
0.637454 -0.0422343 0.5 -459.28
0.642907 -0.0417437 0.5 -450.09
0.648313 -0.041253 0.5 -441.097
0.653694 -0.0407603 0.5 -432.163
0.659096 -0.0402614 0.5 -423.449
0.664496 -0.0397577 0.5 -414.535
0.669852 -0.0392536 0.5 -405.509
0.675159 -0.0387495 0.5 -396.499
0.680418 -0.0382459 0.5 -387.546
0.685626 -0.0377433 0.5 -378.731
0.690816 -0.0372389 0.5 -369.956
0.696038 -0.0367272 0.5 -361.314
0.701263 -0.0362109 0.5 -352.444
0.706438 -0.0356954 0.5 -343.478
0.711561 -0.035181 0.5 -334.528
0.716633 -0.0346682 0.5 -325.623
0.72165 -0.0341574 0.5 -316.843
0.726654 -0.0336446 0.5 -308.075
0.731704 -0.0331235 0.5 -299.383
0.736758 -0.032598 0.5 -290.443
0.741759 -0.0320742 0.5 -281.412
0.746705 -0.0315527 0.5 -272.401
0.751594 -0.0310337 0.5 -263.411
0.756425 -0.0305178 0.5 -254.551
0.761255 -0.029999 0.5 -245.658
0.766142 -0.0294707 0.5 -236.774
0.771031 -0.0289385 0.5 -227.629
0.775861 -0.0284092 0.5 -218.412
0.780632 -0.0278832 0.5 -209.207
0.785341 -0.0273608 0.5 -200.035
0.789989 -0.0268423 0.5 -190.939
0.79466 -0.0263184 0.5 -181.784
0.799401 -0.0257833 0.5 -172.509
0.804125 -0.0252465 0.5 -162.934
0.808785 -0.0247137 0.5 -153.3
0.81338 -0.0241853 0.5 -143.668
0.817908 -0.0236617 0.5 -134.085
0.822369 -0.0231434 0.5 -124.554
0.826908 -0.0226131 0.5 -114.911
0.831528 -0.0220701 0.5 -104.951
0.836084 -0.0215313 0.5 -94.7672
0.840568 -0.0209979 0.5 -84.555
0.844979 -0.0204704 0.5 -74.3591
0.849317 -0.0199491 0.5 -64.2219
0.853667 -0.0194238 0.5 -53.9679
0.858113 -0.0188842 0.5 -43.5258
0.862564 -0.0183407 0.5 -32.6897
0.866936 -0.0178038 0.5 -21.7534
0.871227 -0.0172741 0.5 -10.8202
0.875436 -0.016752 0.5 0.0640306
0.879628 -0.0162295 0.5 11.0769
0.88393 -0.0156905 0.5 22.3591
0.88827 -0.0151435 0.5 34.2113
0.892518 -0.014605 0.5 46.1802
0.896674 -0.0140755 0.5 58.1516
0.900735 -0.0135557 0.5 70.0708
0.904824 -0.01303 0.5 82.2547
0.909034 -0.0124858 0.5 94.8257
0.913238 -0.0119394 0.5 108.001
0.917332 -0.0114042 0.5 121.235
0.921316 -0.010881 0.5 134.397
0.925241 -0.0103633 0.5 147.658
0.929306 -0.00982488 0.5 161.423
0.933445 -0.00927338 0.5 176.007
0.937451 -0.00873681 0.5 190.706
0.941321 -0.00821597 0.5 205.274
0.945168 -0.00769601 0.5 220.151
0.949167 -0.00715299 0.5 235.694
0.953183 -0.00660441 0.5 252.174
0.957024 -0.006077 0.5 268.546
0.960743 -0.00556416 0.5 284.947
0.964631 -0.00502557 0.5 302.256
0.968598 -0.00447292 0.5 320.82
0.972318 -0.00395183 0.5 339.221
0.976051 -0.00342699 0.5 358.242
0.979926 -0.00287974 0.5 378.609
0.983612 -0.00235633 0.5 398.875
0.987331 -0.00182587 0.5 422.125
0.991079 -0.00128868 0.5 441.902
0.994786 -0.000754822 0.5 475.952
0.998359 -0.000238135 0.5 478.878
