# wallShearStress  FACE_DATA 341
#  x  y  z  wallShearStress_x  wallShearStress_y  wallShearStress_z  
0.253551 0.0594249 0.5 -18.153 -0.451005 3.63835e-18
0.260625 0.059604 0.5 -20.3132 -0.510783 -3.81049e-18
0.268301 0.0597641 0.5 -20.0423 -0.342292 3.33927e-18
0.275825 0.0598682 0.5 -18.8931 -0.19443 -1.01071e-18
0.282831 0.059928 0.5 -18.4191 -0.138956 -9.12449e-19
0.290299 0.0599719 0.5 -18.3982 -0.0874085 7.31657e-35
0.298014 0.0599954 0.5 -18.326 -0.0312391 -2.09638e-19
0.305661 0.0599931 0.5 -18.1434 0.0354375 -4.27112e-19
0.313016 0.0599637 0.5 -17.8608 0.099 -8.88996e-19
0.3202 0.0599102 0.5 -17.6239 0.151878 8.74587e-19
0.327394 0.0598346 0.5 -17.4465 0.20192 4.24251e-22
0.334592 0.0597382 0.5 -17.2751 0.248108 1.70604e-18
0.341788 0.059622 0.5 -17.1233 0.291641 -1.6845e-18
0.348891 0.0594882 0.5 -16.9838 0.334823 -9.97141e-24
0.355903 0.0593371 0.5 -16.8185 0.37596 -8.28889e-22
0.362912 0.0591677 0.5 -16.6468 0.413516 8.07907e-22
0.369915 0.058981 0.5 -16.5018 0.44929 -6.58162e-18
0.376908 0.0587783 0.5 -16.3629 0.482521 5.52482e-37
0.383848 0.0585616 0.5 -16.2276 0.514057 -3.25316e-18
0.39071 0.0583318 0.5 -16.0756 0.545934 -1.03359e-23
0.397536 0.0580877 0.5 -15.9148 0.574936 -7.87528e-22
0.404349 0.0578293 0.5 -15.7626 0.601962 3.16757e-18
0.411146 0.0575577 0.5 -15.6225 0.627105 -3.13185e-18
0.417921 0.0572738 0.5 -15.5006 0.6511 2.23344e-37
0.424635 0.05698 0.5 -15.3895 0.675699 -6.20426e-18
0.431287 0.0566758 0.5 -15.2619 0.699623 -6.14235e-18
0.437919 0.0563599 0.5 -15.1258 0.720738 1.10106e-22
0.444529 0.056033 0.5 -15.0018 0.740867 -6.00466e-18
0.451115 0.055696 0.5 -14.8901 0.759945 1.88079e-37
0.457672 0.0553498 0.5 -14.7945 0.778411 5.88318e-18
0.464179 0.0549959 0.5 -14.6972 0.797383 -2.86206e-21
0.47064 0.0546337 0.5 -14.5833 0.815251 1.16003e-17
0.477077 0.0542621 0.5 -14.4654 0.831177 5.73242e-18
0.483487 0.0538822 0.5 -14.3585 0.846489 2.77034e-21
0.489866 0.0534947 0.5 -14.2613 0.861014 -2.09669e-23
0.496211 0.0531004 0.5 -14.1742 0.874826 -1.11203e-17
0.50252 0.0526998 0.5 -14.0916 0.889378 -1.35501e-21
0.508797 0.0522921 0.5 -13.9945 0.903605 5.45127e-18
0.515045 0.0518774 0.5 -13.8912 0.915832 5.39367e-18
0.52126 0.0514563 0.5 -13.7944 0.927454 5.33373e-18
0.52744 0.0510296 0.5 -13.7048 0.938361 5.2798e-18
0.533582 0.0505981 0.5 -13.6238 0.948784 -1.20371e-34
0.539695 0.0501616 0.5 -13.5524 0.959608 -4.70198e-37
0.545788 0.0497191 0.5 -13.4706 0.971109 5.09684e-18
0.551854 0.0492707 0.5 -13.3779 0.980582 -5.04224e-18
0.557885 0.0488177 0.5 -13.2875 0.989296 4.98666e-18
0.563876 0.0483607 0.5 -13.2042 0.997613 -1.41059e-36
0.569827 0.0479005 0.5 -13.1284 1.00563 1.18197e-21
0.575737 0.0474373 0.5 -13.0622 1.01359 -1.18967e-21
0.58164 0.0469687 0.5 -12.9962 1.02257 9.87415e-37
0.587536 0.0464941 0.5 -12.9177 1.03065 -4.6783e-18
0.593393 0.0460162 0.5 -12.8349 1.03737 -1.49171e-22
0.599208 0.0455357 0.5 -12.7567 1.04385 -6.82271e-35
0.60498 0.045053 0.5 -12.6847 1.05017 2.52039e-34
0.610706 0.0445687 0.5 -12.6178 1.05617 1.08306e-21
0.616408 0.0440814 0.5 -12.5589 1.06264 1.28326e-22
0.622117 0.043588 0.5 -12.4923 1.06975 -4.30329e-18
0.627812 0.04309 0.5 -12.4149 1.07516 -4.25115e-18
0.633463 0.0425903 0.5 -12.3391 1.08007 8.39915e-18
0.639069 0.0420895 0.5 -12.2691 1.08487 8.29736e-18
0.644626 0.0415881 0.5 -12.2048 1.08951 -4.09903e-18
0.650134 0.0410868 0.5 -12.1473 1.09413 -9.40395e-38
0.655639 0.0405812 0.5 -12.0957 1.09947 -3.9339e-18
0.661165 0.0400689 0.5 -12.0356 1.10509 -7.70971e-18
0.666665 0.039554 0.5 -11.9688 1.1093 8.46356e-37
0.672117 0.0390389 0.5 -11.9062 1.11348 9.05137e-22
0.677519 0.038524 0.5 -11.8502 1.11779 -9.13676e-22
0.682868 0.0380099 0.5 -11.8009 1.12219 -1.59561e-22
0.688165 0.037497 0.5 -11.7609 1.12703 3.59878e-18
0.693484 0.0369779 0.5 -11.7282 1.13319 1.57798e-34
0.698837 0.0364512 0.5 -11.6838 1.1389 8.15246e-22
0.704147 0.0359241 0.5 -11.6274 1.14276 1.36841e-22
0.709405 0.0353979 0.5 -11.5678 1.14588 -3.27369e-18
0.714609 0.0348733 0.5 -11.5082 1.1485 3.21819e-18
0.719757 0.0343505 0.5 -11.4497 1.15071 7.61707e-22
0.724855 0.0338293 0.5 -11.3966 1.15308 -3.10197e-18
0.729999 0.0332999 0.5 -11.3407 1.15608 -1.53625e-22
0.73518 0.0327625 0.5 -11.2739 1.15821 -2.87784e-18
0.740306 0.0322267 0.5 -11.2037 1.15941 -6.88056e-22
0.745375 0.0316932 0.5 -11.1363 1.16051 2.75816e-18
0.750386 0.0311622 0.5 -11.0725 1.1615 2.69665e-18
0.755336 0.0306343 0.5 -11.0119 1.16236 -2.63573e-18
0.76026 0.0301061 0.5 -10.9571 1.16358 2.53898e-18
0.765241 0.0295683 0.5 -10.8977 1.16545 1.97483e-36
0.770246 0.0290241 0.5 -10.8282 1.1661 -7.87022e-35
0.775191 0.0284829 0.5 -10.7574 1.16618 2.13467e-35
0.780073 0.027945 0.5 -10.6895 1.1662 3.23174e-35
0.784891 0.0274108 0.5 -10.6245 1.16612 2.52724e-22
0.789645 0.0268807 0.5 -10.5629 1.166 -2.04924e-18
0.794414 0.0263459 0.5 -10.5044 1.16637 1.90962e-18
0.799254 0.0257999 0.5 -10.4372 1.16693 1.79352e-18
0.804082 0.0252514 0.5 -10.3612 1.166 -1.12266e-34
0.808843 0.0247071 0.5 -10.2864 1.16476 1.63419e-18
0.813536 0.0241673 0.5 -10.2151 1.16344 -3.7863e-22
0.81816 0.0236326 0.5 -10.1469 1.16198 2.93288e-18
0.822721 0.0231023 0.5 -10.0848 1.16079 -1.37463e-18
0.827366 0.0225594 0.5 -10.0196 1.16029 -1.53812e-22
0.832084 0.0220045 0.5 -9.94142 1.15874 -2.22803e-18
0.836729 0.0214548 0.5 -9.85984 1.15617 1.01726e-18
0.841299 0.0209107 0.5 -9.78139 1.15347 -9.17772e-19
0.845793 0.0203728 0.5 -9.70626 1.15061 -8.14932e-19
0.85021 0.0198415 0.5 -9.63609 1.1478 5.28972e-38
0.854677 0.0193015 0.5 -9.56859 1.14568 -1.12979e-18
0.859239 0.0187469 0.5 -9.4893 1.14336 -6.1523e-23
0.863766 0.0181934 0.5 -9.40092 1.13936 3.26548e-19
0.868209 0.0176469 0.5 -9.3148 1.13519 3.27304e-23
0.872568 0.017108 0.5 -9.2324 1.13096 1.45143e-39
0.87684 0.0165772 0.5 -9.15394 1.12668 -0
0.881165 0.0160373 0.5 -9.07718 1.12299 -8.60958e-42
0.885597 0.0154808 0.5 -8.98664 1.11898 -4.69299e-23
0.889995 0.0149253 0.5 -8.88561 1.11294 4.7947e-23
0.894296 0.0143788 0.5 -8.78876 1.10679 8.45458e-23
0.8985 0.013842 0.5 -8.69612 1.10043 7.82351e-19
0.902612 0.0133146 0.5 -8.61174 1.09445 -9.50223e-19
0.90685 0.0127685 0.5 -8.52284 1.08918 1.34186e-22
0.911199 0.0122047 0.5 -8.41405 1.08212 -1.20533e-18
0.915436 0.0116524 0.5 -8.30024 1.07346 2.80312e-18
0.919558 0.0111121 0.5 -8.19221 1.06471 -1.03355e-22
0.923564 0.0105848 0.5 -8.09099 1.05595 1.82812e-18
0.92766 0.0100432 0.5 -7.99009 1.04779 -1.2734e-22
0.931889 0.00948105 0.5 -7.86714 1.03829 -2.05371e-18
0.936032 0.00892713 0.5 -7.73184 1.02617 -2.3108e-18
0.940034 0.00838932 0.5 -7.60083 1.01366 1.63717e-22
0.943918 0.00786528 0.5 -7.479 1.00139 2.84619e-18
0.947957 0.00731753 0.5 -7.34514 0.989104 -2.7582e-18
0.952111 0.00675118 0.5 -7.18183 0.973435 9.40395e-38
0.956082 0.0062066 0.5 -7.01293 0.955562 -2.1747e-22
0.959868 0.005685 0.5 -6.85731 0.938123 -1.92588e-18
0.963806 0.00514008 0.5 -6.69164 0.92041 3.61357e-18
0.967884 0.00457263 0.5 -6.48563 0.898327 -4.04026e-18
0.971729 0.00403453 0.5 -6.27152 0.872946 -4.57608e-18
0.97552 0.00350184 0.5 -6.06725 0.847534 -4.64921e-18
0.979458 0.0029459 0.5 -5.84045 0.821353 1.48839e-22
0.983267 0.00240536 0.5 -5.53483 0.782447 -2.77913e-18
0.98706 0.00186472 0.5 -5.3251 0.756149 -1.58209e-22
0.990882 0.00131704 0.5 -4.78064 0.684078 -6.06543e-18
0.994678 0.000770466 0.5 -4.90698 0.702186 1.79606e-22
0.99832 0.00024378 0.5 -2.1954 0.799082 -3.68483e-21
0.00133235 0.00449653 0.5 -19.2582 -65.4635 1.79433e-39
0.00576479 0.0125392 0.5 -54.1781 -63.1671 -2.25695e-36
0.0127073 0.018847 0.5 -45.1747 -33.2264 -2.43979e-17
0.0207688 0.0238748 0.5 -34.7964 -19.0507 -5.67471e-17
0.0291543 0.0279559 0.5 -28.1667 -12.4815 -7.98263e-21
0.037672 0.0313759 0.5 -23.8425 -8.92952 3.07356e-22
0.0464094 0.0343841 0.5 -20.678 -6.69902 4.30676e-17
0.0551576 0.0370177 0.5 -18.4624 -5.2712 4.78134e-17
0.0639069 0.0393539 0.5 -16.6446 -4.23608 1.01051e-16
0.0727041 0.0414595 0.5 -15.2369 -3.48449 -5.2256e-17
0.081414 0.0433437 0.5 -14.0631 -2.91345 2.76258e-17
0.090183 0.0450639 0.5 -13.0839 -2.46292 -2.70985e-17
0.098871 0.0466203 0.5 -12.2163 -2.09631 -1.05287e-21
0.107395 0.0480148 0.5 -11.4965 -1.8066 -8.81863e-22
0.116087 0.049318 0.5 -10.8547 -1.56066 8.67107e-22
0.124618 0.0504925 0.5 -10.2852 -1.35523 9.24318e-22
0.132994 0.0515502 0.5 -9.83321 -1.19148 2.97191e-17
0.141535 0.0525408 0.5 -9.43447 -1.04826 2.92567e-17
0.149928 0.053435 0.5 -9.10754 -0.927492 1.54531e-17
0.158135 0.0542362 0.5 -8.91119 -0.829704 -4.50144e-23
0.166435 0.0549791 0.5 -9.42886 -0.797468 -1.49802e-17
0.174718 0.0556571 0.5 -10.9451 -0.841748 -2.11589e-37
0.182824 0.0562624 0.5 -13.1527 -0.922704 -1.5095e-17
0.190865 0.0568083 0.5 -16.0111 -1.02433 -4.52581e-22
0.198976 0.0573076 0.5 -18.8324 -1.09364 2.86986e-42
0.20712 0.0577564 0.5 -20.5712 -1.06062 3.60266e-34
0.215524 0.0581602 0.5 -20.9098 -0.928006 -6.66894e-18
0.224086 0.0585239 0.5 -20.798 -0.835966 -6.68006e-18
0.231971 0.0588335 0.5 -20.8805 -0.7917 7.69595e-18
0.239768 0.0591111 0.5 -21.4003 -0.719871 1.06155e-22
0.246955 0.0592927 0.5 -19.107 -0.277223 -1.79263e-22
0.00133235 -0.00449653 0.5 -19.2376 65.3858 3.00927e-36
0.00576479 -0.0125392 0.5 -53.8746 62.7915 -1.48877e-16
0.0127073 -0.018847 0.5 -44.6968 32.8605 4.71779e-17
0.0207688 -0.0238748 0.5 -34.664 18.9635 2.87554e-17
0.0291543 -0.0279559 0.5 -28.0302 12.4131 6.68809e-34
0.037672 -0.0313759 0.5 -23.8309 8.92562 2.72063e-39
0.0464094 -0.0343841 0.5 -20.8006 6.74196 2.46808e-40
0.0551576 -0.0370177 0.5 -18.4144 5.25171 6.01853e-36
0.0639069 -0.0393539 0.5 -16.6528 4.23645 -5.04806e-17
0.0727041 -0.0414595 0.5 -15.2636 3.49033 5.23471e-17
0.081414 -0.0433437 0.5 -14.0824 2.9161 -1.68401e-21
0.090183 -0.0450639 0.5 -13.0852 2.46157 5.42718e-17
0.098871 -0.0466203 0.5 -12.2228 2.09612 5.83225e-17
0.107395 -0.0480148 0.5 -11.4914 1.80529 2.88357e-17
0.116087 -0.049318 0.5 -10.8427 1.55875 -4.5139e-36
0.124618 -0.0504925 0.5 -10.2507 1.35067 -3.02734e-17
0.132994 -0.0515502 0.5 -9.77315 1.18381 -5.93666e-17
0.141535 -0.0525408 0.5 -9.32274 1.03507 -2.92033e-17
0.149928 -0.053435 0.5 -8.96297 0.912258 -9.40255e-22
0.158135 -0.0542362 0.5 -8.66003 0.809295 -1.5252e-17
0.166435 -0.0549791 0.5 -8.40672 0.717827 1.50334e-17
0.174718 -0.0556571 0.5 -8.39027 0.650409 4.62381e-22
0.182824 -0.0562624 0.5 -9.05988 0.635187 -9.41673e-22
0.190865 -0.0568083 0.5 -10.678 0.678475 4.6286e-22
0.198976 -0.0573076 0.5 -13.5471 0.780408 1.45675e-17
0.20712 -0.0577564 0.5 -16.8777 0.864874 -7.16006e-18
0.215524 -0.0581602 0.5 -19.2587 0.851792 6.63926e-18
0.224086 -0.0585239 0.5 -20.4652 0.821767 6.64328e-18
0.231971 -0.0588335 0.5 -21.0691 0.798521 1.16938e-22
0.239768 -0.0591111 0.5 -21.743 0.730373 -1.03175e-22
0.246955 -0.0592927 0.5 -19.4002 0.284015 2.40184e-18
0.253478 -0.0594229 0.5 -18.4236 0.460733 -3.02873e-23
0.260394 -0.0595984 0.5 -20.5816 0.520075 6.67314e-39
0.267845 -0.0597569 0.5 -20.348 0.358374 2.08759e-22
0.275233 -0.059862 0.5 -19.1848 0.202867 -2.48513e-22
0.282135 -0.059923 0.5 -18.6684 0.1453 -2.28082e-22
0.289403 -0.0599678 0.5 -18.6507 0.0943572 2.15402e-22
0.296942 -0.0599937 0.5 -18.5699 0.0397912 -9.64869e-39
0.304465 -0.0599955 0.5 -18.4162 -0.0249107 -4.99585e-38
0.311708 -0.0599711 0.5 -18.142 -0.0910914 1.81566e-18
0.318744 -0.0599229 0.5 -17.8762 -0.143994 8.81621e-38
0.325783 -0.0598535 0.5 -17.6926 -0.194443 1.34103e-34
0.332827 -0.0597638 0.5 -17.5197 -0.241181 1.74657e-18
0.339871 -0.0596549 0.5 -17.3539 -0.284765 3.45109e-18
0.346848 -0.0595287 0.5 -17.2023 -0.326797 8.53342e-22
0.353736 -0.0593859 0.5 -17.0451 -0.368952 -3.46007e-18
0.360596 -0.0592257 0.5 -16.8706 -0.407243 8.3958e-22
0.367453 -0.0590487 0.5 -16.7064 -0.442851 3.21926e-23
0.3743 -0.0588558 0.5 -16.5596 -0.476296 -3.33773e-18
0.381124 -0.0586486 0.5 -16.4396 -0.508303 8.13968e-22
0.38787 -0.0584289 0.5 -16.3138 -0.54081 6.65773e-18
0.394554 -0.0581963 0.5 -16.1651 -0.570968 -1.73973e-36
0.401228 -0.0579495 0.5 -16.0196 -0.598965 -6.50464e-18
0.407888 -0.0576896 0.5 -15.8894 -0.625485 7.90411e-22
0.41453 -0.0574175 0.5 -15.772 -0.650455 3.52648e-37
0.421133 -0.0571349 0.5 -15.6663 -0.67433 -3.16594e-18
0.427675 -0.0568427 0.5 -15.5521 -0.699227 -7.65529e-22
0.434175 -0.0565398 0.5 -15.4217 -0.72172 7.67474e-22
0.440657 -0.0562259 0.5 -15.3003 -0.742957 -2.58609e-36
0.447118 -0.0559019 0.5 -15.1878 -0.762902 6.10977e-18
0.453553 -0.0555685 0.5 -15.0831 -0.781445 7.33e-22
0.459952 -0.0552271 0.5 -14.9919 -0.799704 6.00297e-18
0.466305 -0.054878 0.5 -14.8885 -0.818754 5.9691e-18
0.472621 -0.0545205 0.5 -14.7703 -0.835767 -1.18104e-17
0.478913 -0.0541543 0.5 -14.6523 -0.851294 1.04563e-22
0.485178 -0.0537804 0.5 -14.5427 -0.865811 -5.78225e-18
0.491413 -0.0533994 0.5 -14.4443 -0.879764 5.7246e-18
0.497615 -0.0530121 0.5 -14.3589 -0.89333 -6.87302e-22
0.503783 -0.0526186 0.5 -14.2742 -0.908129 1.37182e-21
0.509921 -0.0522183 0.5 -14.1733 -0.921659 -1.11247e-17
0.51603 -0.0518112 0.5 -14.0691 -0.933505 5.50287e-18
0.522108 -0.0513982 0.5 -13.9741 -0.944953 1.08906e-17
0.528152 -0.05098 0.5 -13.888 -0.955883 5.39115e-18
0.534159 -0.0505573 0.5 -13.8108 -0.966341 6.46653e-22
0.54014 -0.0501296 0.5 -13.7433 -0.97739 -9.94927e-24
0.546102 -0.0496961 0.5 -13.6638 -0.988923 5.20605e-18
0.552038 -0.0492571 0.5 -13.5735 -0.998402 5.15168e-18
0.557939 -0.0488136 0.5 -13.4892 -1.00754 6.16991e-22
0.563803 -0.0483664 0.5 -13.4125 -1.01633 -1.23155e-21
0.569628 -0.047916 0.5 -13.3434 -1.02478 4.90963e-22
0.575412 -0.047463 0.5 -13.285 -1.03328 -5.98711e-22
0.58119 -0.0470047 0.5 -13.2257 -1.0425 -4.83949e-18
0.586964 -0.0465405 0.5 -13.152 -1.05099 1.00802e-23
0.5927 -0.0460731 0.5 -13.0721 -1.05807 1.15628e-21
0.598397 -0.0456031 0.5 -12.9954 -1.06475 -4.68548e-18
0.604052 -0.045131 0.5 -12.9238 -1.07114 -4.63495e-18
0.609664 -0.0446572 0.5 -12.8571 -1.07724 8.93376e-37
0.615243 -0.0441814 0.5 -12.7974 -1.0834 1.69271e-36
0.620829 -0.0436999 0.5 -12.7328 -1.09038 8.82288e-18
0.626413 -0.0432129 0.5 -12.6563 -1.09614 -1.88079e-36
0.631955 -0.0427242 0.5 -12.5789 -1.10108 -4.30924e-18
0.637454 -0.0422343 0.5 -12.5054 -1.1057 5.64237e-37
0.642907 -0.0417437 0.5 -12.4384 -1.11025 4.20826e-18
0.648313 -0.041253 0.5 -12.3753 -1.11447 -4.16054e-18
0.653694 -0.0407603 0.5 -12.3195 -1.11895 -1.3063e-22
0.659096 -0.0402614 0.5 -12.2589 -1.12432 4.78727e-22
0.664496 -0.0397577 0.5 -12.1877 -1.12839 3.91212e-18
0.669852 -0.0392536 0.5 -12.1161 -1.13188 -3.86051e-18
0.675159 -0.0387495 0.5 -12.0482 -1.1352 5.32719e-35
0.680418 -0.0382459 0.5 -11.985 -1.13844 -3.75748e-18
0.685626 -0.0377433 0.5 -11.9251 -1.14143 3.11569e-22
0.690816 -0.0372389 0.5 -11.871 -1.14477 -3.61295e-18
0.696038 -0.0367272 0.5 -11.8113 -1.1488 -3.29138e-37
0.701263 -0.0362109 0.5 -11.7418 -1.15153 3.24954e-34
0.706438 -0.0356954 0.5 -11.6724 -1.1538 3.38352e-18
0.711561 -0.035181 0.5 -11.6063 -1.1559 -3.32861e-18
0.716633 -0.0346682 0.5 -11.5444 -1.15794 -3.27356e-18
0.72165 -0.0341574 0.5 -11.4856 -1.15977 -3.22017e-18
0.726654 -0.0336446 0.5 -11.432 -1.16198 3.11222e-18
0.731704 -0.0331235 0.5 -11.3723 -1.16482 1.08128e-23
0.736758 -0.032598 0.5 -11.303 -1.16632 1.10747e-23
0.741759 -0.0320742 0.5 -11.2343 -1.16745 7.00396e-22
0.746705 -0.0315527 0.5 -11.1682 -1.16839 -6.85605e-22
0.751594 -0.0310337 0.5 -11.1064 -1.16934 6.70781e-22
0.756425 -0.0305178 0.5 -11.0476 -1.17014 -6.56006e-22
0.761255 -0.029999 0.5 -10.9933 -1.17134 3.1868e-22
0.766142 -0.0294707 0.5 -10.9325 -1.17304 2.44033e-18
0.771031 -0.0289385 0.5 -10.8628 -1.17345 -2.37349e-18
0.775861 -0.0284092 0.5 -10.7938 -1.17356 -2.87359e-22
0.780632 -0.0278832 0.5 -10.7274 -1.17354 4.47222e-18
0.785341 -0.0273608 0.5 -10.6639 -1.17344 -2.16584e-18
0.789989 -0.0268423 0.5 -10.604 -1.17334 4.23178e-37
0.79466 -0.0263184 0.5 -10.5465 -1.17372 0
0.799401 -0.0257833 0.5 -10.4796 -1.17417 -9.40395e-38
0.804125 -0.0252465 0.5 -10.4047 -1.17323 1.75845e-18
0.808785 -0.0247137 0.5 -10.3318 -1.17208 4.09571e-22
0.81338 -0.0241853 0.5 -10.2621 -1.17083 -1.59543e-18
0.817908 -0.0236617 0.5 -10.1951 -1.16939 -1.5106e-18
0.822369 -0.0231434 0.5 -10.1342 -1.16822 1.42521e-18
0.826908 -0.0226131 0.5 -10.0718 -1.16772 -1.59318e-22
0.831528 -0.0220701 0.5 -9.99622 -1.16642 2.31505e-18
0.836084 -0.0215313 0.5 -9.91572 -1.16391 -1.36505e-22
0.840568 -0.0209979 0.5 -9.83855 -1.16133 -1.43493e-42
0.844979 -0.0204704 0.5 -9.76486 -1.15861 -9.78177e-23
0.849317 -0.0199491 0.5 -9.69499 -1.15581 9.95049e-23
0.853667 -0.0194238 0.5 -9.63013 -1.15358 9.31221e-36
0.858113 -0.0188842 0.5 -9.55625 -1.15169 0
0.862564 -0.0183407 0.5 -9.47037 -1.14803 0
0.866936 -0.0178038 0.5 -9.38533 -1.14401 -2.54116e-19
0.871227 -0.0172741 0.5 -9.30396 -1.13994 1.76324e-38
0.875436 -0.016752 0.5 -9.22543 -1.13568 7.76697e-22
0.879628 -0.0162295 0.5 -9.15275 -1.13195 -1.32842e-19
0.88393 -0.0156905 0.5 -9.07019 -1.12857 2.57922e-19
0.88827 -0.0151435 0.5 -8.97309 -1.12321 2.93874e-38
0.892518 -0.014605 0.5 -8.87677 -1.11729 -7.67358e-23
0.896674 -0.0140755 0.5 -8.78473 -1.1112 1.74891e-22
0.900735 -0.0135557 0.5 -8.69737 -1.10499 -9.86797e-23
0.904824 -0.01303 0.5 -8.61565 -1.09952 9.9908e-19
0.909034 -0.0124858 0.5 -8.5189 -1.09396 2.25233e-18
0.913238 -0.0119394 0.5 -8.40628 -1.08576 1.6078e-22
0.917332 -0.0114042 0.5 -8.29741 -1.07725 1.51714e-18
0.921316 -0.010881 0.5 -8.1926 -1.06839 1.25146e-22
0.925241 -0.0103633 0.5 -8.09608 -1.05991 -1.21354e-22
0.929306 -0.00982488 0.5 -7.98845 -1.05173 1.93971e-18
0.933445 -0.00927338 0.5 -7.8579 -1.04077 -2.18384e-18
0.937451 -0.00873681 0.5 -7.72575 -1.02861 -2.44708e-18
0.941321 -0.00821597 0.5 -7.59803 -1.01606 2.72812e-18
0.945168 -0.00769601 0.5 -7.47749 -1.00392 -2.85634e-18
0.949167 -0.00715299 0.5 -7.33654 -0.991166 -2.90208e-18
0.953183 -0.00660441 0.5 -7.17039 -0.974533 3.24259e-18
0.957024 -0.006077 0.5 -7.00602 -0.956805 7.22874e-18
0.960743 -0.00556416 0.5 -6.85458 -0.939586 0
0.964631 -0.00502557 0.5 -6.68409 -0.921766 -3.76158e-37
0.968598 -0.00447292 0.5 -6.47482 -0.898669 -4.21426e-18
0.972318 -0.00395183 0.5 -6.2684 -0.87387 2.38074e-18
0.976051 -0.00342699 0.5 -6.06559 -0.848664 1.46698e-22
0.979926 -0.00287974 0.5 -5.83524 -0.821909 -4.92699e-18
0.983612 -0.00235633 0.5 -5.53524 -0.783349 5.76385e-18
0.987331 -0.00182587 0.5 -5.32865 -0.757483 -5.40005e-18
0.991079 -0.00128868 0.5 -4.78323 -0.684977 1.11387e-23
0.994786 -0.000754822 0.5 -4.92001 -0.70441 6.21837e-18
0.998359 -0.000238135 0.5 -2.21371 -0.806939 -3.67915e-18
