# wallShearStress  FACE_DATA 341
#  x  y  z  wallShearStress_x  wallShearStress_y  wallShearStress_z  
0.253551 0.0594249 0.5 -16.6696 -0.420506 2.02846e-25
0.260625 0.059604 0.5 -16.8349 -0.426911 -3.43619e-26
0.268301 0.0597641 0.5 -17.0171 -0.291232 9.71581e-24
0.275825 0.0598682 0.5 -17.1394 -0.167312 -3.09952e-42
0.282831 0.059928 0.5 -17.3395 -0.127523 -1.171e-25
0.290299 0.0599719 0.5 -17.6161 -0.0777635 -1.18639e-25
0.298014 0.0599954 0.5 -17.8918 -0.0262598 6.11724e-26
0.305661 0.0599931 0.5 -18.2034 0.0408703 1.19325e-25
0.313016 0.0599637 0.5 -18.5825 0.107938 -6.54047e-24
0.3202 0.0599102 0.5 -18.9697 0.175195 2.4558e-24
0.327394 0.0598346 0.5 -19.3593 0.233243 -1.82577e-24
0.334592 0.0597382 0.5 -19.7955 0.294611 4.3338e-25
0.341788 0.059622 0.5 -20.2722 0.353249 -6.23535e-24
0.348891 0.0594882 0.5 -20.7287 0.423357 -8.38316e-28
0.355903 0.0593371 0.5 -21.1854 0.486733 2.4382e-25
0.362912 0.0591677 0.5 -21.6844 0.553405 2.41277e-25
0.369915 0.058981 0.5 -22.1674 0.618983 -1.34983e-24
0.376908 0.0587783 0.5 -22.6501 0.684069 -2.41381e-25
0.383848 0.0585616 0.5 -23.1651 0.749014 4.15752e-24
0.39071 0.0583318 0.5 -23.6561 0.823487 -6.16151e-42
0.397536 0.0580877 0.5 -24.1379 0.890761 3.31267e-42
0.404349 0.0578293 0.5 -24.6256 0.962269 -2.30564e-24
0.411146 0.0575577 0.5 -25.1126 1.03013 -4.22343e-24
0.417921 0.0572738 0.5 -25.5943 1.09781 4.95388e-25
0.424635 0.05698 0.5 -26.0657 1.1666 5.01635e-25
0.431287 0.0566758 0.5 -26.5155 1.24087 1.73876e-23
0.437919 0.0563599 0.5 -26.9467 1.30998 9.64742e-24
0.444529 0.056033 0.5 -27.3471 1.37935 -2.22368e-23
0.451115 0.055696 0.5 -27.7238 1.44324 4.99826e-25
0.457672 0.0553498 0.5 -28.1041 1.50684 5.03595e-25
0.464179 0.0549959 0.5 -28.4659 1.57314 5.08313e-25
0.47064 0.0546337 0.5 -28.8166 1.64153 -4.91465e-24
0.477077 0.0542621 0.5 -29.1537 1.70721 9.25232e-24
0.483487 0.0538822 0.5 -29.4473 1.76911 -5.09719e-25
0.489866 0.0534947 0.5 -29.7237 1.82785 -4.78486e-24
0.496211 0.0531004 0.5 -29.9987 1.88529 -9.2273e-24
0.50252 0.0526998 0.5 -30.2416 1.94213 -1.81398e-41
0.508797 0.0522921 0.5 -30.4532 2.00147 7.99614e-24
0.515045 0.0518774 0.5 -30.6468 2.05692 1.43654e-24
0.52126 0.0514563 0.5 -30.8233 2.10992 7.97637e-24
0.52744 0.0510296 0.5 -31.005 2.16063 -3.92364e-44
0.533582 0.0505981 0.5 -31.1808 2.20936 5.05548e-25
0.539695 0.0501616 0.5 -31.3275 2.2555 -2.31158e-24
0.545788 0.0497191 0.5 -31.4249 2.30328 5.12289e-25
0.551854 0.0492707 0.5 -31.4933 2.34783 -9.46866e-25
0.557885 0.0488177 0.5 -31.5454 2.38885 7.84937e-42
0.563876 0.0483607 0.5 -31.5839 2.42691 -1.28919e-43
0.569827 0.0479005 0.5 -31.6066 2.46146 -5.0014e-25
0.575737 0.0474373 0.5 -31.6096 2.49267 -2.41178e-24
0.58164 0.0469687 0.5 -31.5653 2.52284 5.02357e-25
0.587536 0.0464941 0.5 -31.4825 2.55194 6.17343e-25
0.593393 0.0460162 0.5 -31.3886 2.57793 -7.62978e-25
0.599208 0.0455357 0.5 -31.3152 2.60401 3.01636e-27
0.60498 0.045053 0.5 -31.2703 2.6292 -4.95009e-25
0.610706 0.0445687 0.5 -31.2093 2.65423 2.01787e-43
0.616408 0.0440814 0.5 -31.1486 2.67446 -6.3486e-24
0.622117 0.043588 0.5 -31.0327 2.69853 9.87633e-25
0.627812 0.04309 0.5 -30.8847 2.71455 4.92709e-25
0.633463 0.0425903 0.5 -30.6991 2.73014 -1.39566e-23
0.639069 0.0420895 0.5 -30.5223 2.73896 3.29336e-23
0.644626 0.0415881 0.5 -30.3501 2.75185 1.57224e-23
0.650134 0.0410868 0.5 -30.1851 2.75784 4.78782e-25
0.655639 0.0405812 0.5 -29.9861 2.7666 3.12939e-23
0.661165 0.0400689 0.5 -29.7594 2.77034 1.34709e-23
0.666665 0.039554 0.5 -29.5159 2.77719 4.76408e-25
0.672117 0.0390389 0.5 -29.2797 2.77671 2.68082e-23
0.677519 0.038524 0.5 -29.0378 2.78038 1.68156e-44
0.682868 0.0380099 0.5 -28.8067 2.77681 1.60653e-23
0.688165 0.037497 0.5 -28.5635 2.77744 -1.87476e-23
0.693484 0.0369779 0.5 -28.3094 2.77086 4.65162e-25
0.698837 0.0364512 0.5 -28.0234 2.77094 -1.98116e-23
0.704147 0.0359241 0.5 -27.7436 2.76267 1.31326e-23
0.709405 0.0353979 0.5 -27.4622 2.75958 -4.56694e-25
0.714609 0.0348733 0.5 -27.2005 2.74958 4.5181e-25
0.719757 0.0343505 0.5 -26.9308 2.74529 2.36273e-23
0.724855 0.0338293 0.5 -26.6735 2.73204 -2.10509e-23
0.729999 0.0332999 0.5 -26.374 2.72591 4.97794e-23
0.73518 0.0327625 0.5 -26.0592 2.70995 -3.64635e-42
0.740306 0.0322267 0.5 -25.7342 2.70079 -4.48416e-44
0.745375 0.0316932 0.5 -25.4261 2.68233 6.06175e-23
0.750386 0.0311622 0.5 -25.1213 2.67209 -2.50383e-23
0.755336 0.0306343 0.5 -24.8365 2.65314 4.61404e-23
0.76026 0.0301061 0.5 -24.5371 2.64115 -2.65514e-23
0.765241 0.0295683 0.5 -24.2192 2.62017 -9.34386e-42
0.770246 0.0290241 0.5 -23.8794 2.60663 2.8363e-23
0.775191 0.0284829 0.5 -23.5554 2.58381 6.16571e-44
0.780073 0.027945 0.5 -23.2378 2.56956 -2.57898e-23
0.784891 0.0274108 0.5 -22.94 2.54734 -4.2058e-25
0.789645 0.0268807 0.5 -22.6424 2.5327 -2.51789e-23
0.794414 0.0263459 0.5 -22.3508 2.50938 2.06707e-25
0.799254 0.0257999 0.5 -22.0223 2.49464 -5.79747e-23
0.804082 0.0252514 0.5 -21.6923 2.46889 4.13727e-25
0.808843 0.0247071 0.5 -21.3617 2.45124 -3.14135e-23
0.813536 0.0241673 0.5 -21.0505 2.42492 0
0.81816 0.0236326 0.5 -20.7529 2.40748 -2.58541e-23
0.822721 0.0231023 0.5 -20.4758 2.38266 -2.6989e-42
0.827366 0.0225594 0.5 -20.1711 2.36557 -2.01894e-25
0.832084 0.0220045 0.5 -19.8546 2.33961 -1.69188e-23
0.836729 0.0214548 0.5 -19.541 2.32093 -2.62743e-45
0.841299 0.0209107 0.5 -19.2459 2.29472 -1.56374e-23
0.845793 0.0203728 0.5 -18.9622 2.27635 -1.95574e-25
0.85021 0.0198415 0.5 -18.6937 2.25089 -1.68156e-44
0.854677 0.0193015 0.5 -18.415 2.23198 2.43386e-23
0.859239 0.0187469 0.5 -18.1069 2.20658 1.92714e-25
0.863766 0.0181934 0.5 -17.8419 2.1854 5.59144e-23
0.868209 0.0176469 0.5 -17.5656 2.16702 -1.97345e-23
0.872568 0.017108 0.5 -17.308 2.14272 -1.89281e-25
0.87684 0.0165772 0.5 -17.0629 2.12543 -2.03995e-23
0.881165 0.0160373 0.5 -16.8036 2.10179 1.8983e-25
0.885597 0.0154808 0.5 -16.5448 2.08283 1.88804e-25
0.889995 0.0149253 0.5 -16.2903 2.06303 3.93485e-42
0.894296 0.0143788 0.5 -16.047 2.04328 1.68156e-44
0.8985 0.013842 0.5 -15.8317 2.02389 -4.72905e-23
0.902612 0.0133146 0.5 -15.6171 2.00738 2.21727e-27
0.90685 0.0127685 0.5 -15.3899 1.98725 1.8249e-25
0.911199 0.0122047 0.5 -15.1646 1.97101 -2.84481e-24
0.915436 0.0116524 0.5 -14.9454 1.95339 3.369e-24
0.919558 0.0111121 0.5 -14.7557 1.93648 -1.79099e-25
0.923564 0.0105848 0.5 -14.5704 1.92224 -1.53684e-23
0.92766 0.0100432 0.5 -14.3762 1.90397 2.65018e-24
0.931889 0.00948105 0.5 -14.1841 1.89044 -1.03325e-23
0.936032 0.00892713 0.5 -13.9992 1.87614 8.03918e-24
0.940034 0.00838932 0.5 -13.829 1.862 -8.03518e-24
0.943918 0.00786528 0.5 -13.6726 1.8477 -9.40089e-24
0.947957 0.00731753 0.5 -13.5102 1.8357 -8.77654e-26
0.952111 0.00675118 0.5 -13.3397 1.82429 6.30973e-24
0.956082 0.0062066 0.5 -13.1911 1.81192 -8.70728e-26
0.959868 0.005685 0.5 -13.0489 1.80134 -1.72048e-23
0.963806 0.00514008 0.5 -12.8956 1.7879 -6.86807e-24
0.967884 0.00457263 0.5 -12.7408 1.77839 -6.63548e-24
0.971729 0.00403453 0.5 -12.5932 1.76583 8.44238e-26
0.97552 0.00350184 0.5 -12.4467 1.75073 3.77016e-24
0.979458 0.0029459 0.5 -12.2931 1.73883 4.14311e-26
0.983267 0.00240536 0.5 -12.1248 1.72511 4.94936e-28
0.98706 0.00186472 0.5 -11.9299 1.70279 -4.02025e-26
0.990882 0.00131704 0.5 -11.6952 1.67988 0
0.994678 0.000770466 0.5 -11.3687 1.6359 3.82961e-26
0.99832 0.00024378 0.5 -10.6575 1.54288 -3.82976e-23
0.00133235 0.00449653 0.5 -1.49388 -4.96406 9.50359e-22
0.00576479 0.0125392 0.5 -12.2806 -14.0244 9.18979e-22
0.0127073 0.018847 0.5 -26.4484 -18.9981 -5.6222e-23
0.0207688 0.0238748 0.5 -36.5828 -19.6454 1.47783e-22
0.0291543 0.0279559 0.5 -41.582 -18.1177 -6.23135e-23
0.037672 0.0313759 0.5 -42.7559 -15.7712 6.05643e-25
0.0464094 0.0343841 0.5 -40.8737 -13.0788 2.90349e-42
0.0551576 0.0370177 0.5 -38.4323 -10.8457 -6.27782e-43
0.0639069 0.0393539 0.5 -36.1055 -9.10329 -8.18735e-23
0.0727041 0.0414595 0.5 -33.6491 -7.63378 7.07151e-41
0.081414 0.0433437 0.5 -31.545 -6.48996 -1.82729e-41
0.090183 0.0450639 0.5 -29.758 -5.56996 2.67647e-23
0.098871 0.0466203 0.5 -28.1755 -4.8138 2.55989e-23
0.107395 0.0480148 0.5 -26.8019 -4.19967 -3.92885e-25
0.116087 0.049318 0.5 -25.5989 -3.67323 4.48396e-23
0.124618 0.0504925 0.5 -24.5323 -3.23083 3.39038e-25
0.132994 0.0515502 0.5 -23.5629 -2.85733 2.09085e-22
0.141535 0.0525408 0.5 -22.693 -2.51834 -8.43659e-23
0.149928 0.053435 0.5 -21.8784 -2.23225 -3.06322e-25
0.158135 0.0542362 0.5 -21.136 -1.97525 -3.39072e-23
0.166435 0.0549791 0.5 -20.4397 -1.75067 1.78469e-23
0.174718 0.0556571 0.5 -19.8258 -1.54991 -1.66434e-23
0.182824 0.0562624 0.5 -19.2553 -1.37185 2.74035e-25
0.190865 0.0568083 0.5 -18.7498 -1.21476 1.33948e-25
0.198976 0.0573076 0.5 -18.2991 -1.07027 1.37433e-23
0.20712 0.0577564 0.5 -17.907 -0.927753 7.60062e-24
0.215524 0.0581602 0.5 -17.5782 -0.784051 -1.85065e-24
0.224086 0.0585239 0.5 -17.2594 -0.69733 4.27013e-24
0.231971 0.0588335 0.5 -17.0354 -0.647096 6.0939e-43
0.239768 0.0591111 0.5 -16.9628 -0.569353 1.88127e-24
0.246955 0.0592927 0.5 -16.8156 -0.236294 3.91404e-27
0.00133235 -0.00449653 0.5 -1.51104 5.01843 3.17579e-22
0.00576479 -0.0125392 0.5 -12.7997 14.6189 -4.29072e-21
0.0127073 -0.018847 0.5 -27.7055 19.9005 -3.15138e-22
0.0207688 -0.0238748 0.5 -37.9344 20.3726 -3.65758e-21
0.0291543 -0.0279559 0.5 -41.3162 17.9981 -2.80388e-25
0.037672 -0.0313759 0.5 -40.8975 15.09 -5.45464e-22
0.0464094 -0.0343841 0.5 -39.2923 12.5715 6.91569e-22
0.0551576 -0.0370177 0.5 -37.2794 10.521 4.10018e-22
0.0639069 -0.0393539 0.5 -35.074 8.8425 -4.19272e-22
0.0727041 -0.0414595 0.5 -32.7722 7.43524 -1.10288e-24
0.081414 -0.0433437 0.5 -30.6061 6.29671 5.64613e-23
0.090183 -0.0450639 0.5 -29.0809 5.44253 1.83839e-22
0.098871 -0.0466203 0.5 -27.5609 4.70936 -8.69811e-23
0.107395 -0.0480148 0.5 -26.1126 4.09149 1.80911e-23
0.116087 -0.049318 0.5 -24.9657 3.58247 -3.53462e-25
0.124618 -0.0504925 0.5 -24.0455 3.1663 -3.44681e-25
0.132994 -0.0515502 0.5 -23.093 2.79775 1.8251e-22
0.141535 -0.0525408 0.5 -22.1711 2.46334 1.87082e-23
0.149928 -0.053435 0.5 -21.4216 2.18312 -2.99345e-25
0.158135 -0.0542362 0.5 -20.7039 1.93715 5.98362e-24
0.166435 -0.0549791 0.5 -20.0505 1.71722 -2.84834e-25
0.174718 -0.0556571 0.5 -19.5124 1.52505 2.77575e-25
0.182824 -0.0562624 0.5 -18.9643 1.35111 4.33213e-23
0.190865 -0.0568083 0.5 -18.4308 1.19311 -1.33186e-25
0.198976 -0.0573076 0.5 -18.0682 1.05738 -9.72548e-24
0.20712 -0.0577564 0.5 -17.7133 0.917648 1.34181e-25
0.215524 -0.0581602 0.5 -17.3779 0.775131 -1.09535e-24
0.224086 -0.0585239 0.5 -17.1114 0.691408 8.73674e-26
0.231971 -0.0588335 0.5 -16.9304 0.64321 1.89901e-24
0.239768 -0.0591111 0.5 -16.9029 0.567047 2.28208e-25
0.246955 -0.0592927 0.5 -16.7992 0.235989 4.57497e-26
0.253478 -0.0594229 0.5 -16.7164 0.42085 2.62743e-46
0.260394 -0.0595984 0.5 -16.8788 0.430993 0
0.267845 -0.0597569 0.5 -17.0537 0.299363 0
0.275233 -0.059862 0.5 -17.1462 0.175367 1.63405e-44
0.282135 -0.059923 0.5 -17.2324 0.128802 -1.90533e-42
0.289403 -0.0599678 0.5 -17.4127 0.0847574 -1.1806e-25
0.296942 -0.0599937 0.5 -17.6086 0.0344279 -2.39537e-25
0.304465 -0.0599955 0.5 -17.7988 -0.0279659 -1.21421e-25
0.311708 -0.0599711 0.5 -18.0034 -0.0961314 1.1729e-25
0.318744 -0.0599229 0.5 -18.2907 -0.15455 -2.40359e-25
0.325783 -0.0598535 0.5 -18.5431 -0.210726 -1.20473e-25
0.332827 -0.0597638 0.5 -18.7631 -0.265984 -8.05747e-45
0.339871 -0.0596549 0.5 -19.0591 -0.321057 4.07267e-25
0.346848 -0.0595287 0.5 -19.3478 -0.376266 -1.73309e-24
0.353736 -0.0593859 0.5 -19.6172 -0.434109 8.01262e-42
0.360596 -0.0592257 0.5 -19.9516 -0.492416 8.96988e-24
0.367453 -0.0590487 0.5 -20.2472 -0.547866 -1.01301e-23
0.3743 -0.0588558 0.5 -20.5383 -0.602869 1.13246e-41
0.381124 -0.0586486 0.5 -20.8462 -0.656393 -3.52024e-42
0.38787 -0.0584289 0.5 -21.1128 -0.71249 4.21162e-24
0.394554 -0.0581963 0.5 -21.4253 -0.770711 4.32861e-42
0.401228 -0.0579495 0.5 -21.7192 -0.826973 1.39693e-24
0.407888 -0.0576896 0.5 -22.05 -0.883663 8.4902e-24
0.41453 -0.0574175 0.5 -22.3326 -0.936521 -1.40806e-23
0.421133 -0.0571349 0.5 -22.5779 -0.987739 -6.27009e-25
0.427675 -0.0568427 0.5 -22.8666 -1.04477 -6.88038e-42
0.434175 -0.0565398 0.5 -23.1347 -1.10067 1.22767e-42
0.440657 -0.0562259 0.5 -23.3866 -1.15436 -6.32126e-42
0.447118 -0.0559019 0.5 -23.6281 -1.20609 -2.09955e-24
0.453553 -0.0555685 0.5 -23.9249 -1.25954 -2.38776e-25
0.459952 -0.0552271 0.5 -24.1696 -1.30862 -2.04544e-23
0.466305 -0.054878 0.5 -24.3408 -1.35869 1.53233e-24
0.472621 -0.0545205 0.5 -24.5324 -1.40937 -1.99897e-24
0.478913 -0.0541543 0.5 -24.7088 -1.45768 5.89008e-24
0.485178 -0.0537804 0.5 -24.8888 -1.50455 2.09074e-42
0.491413 -0.0533994 0.5 -25.0859 -1.55106 6.89492e-24
0.497615 -0.0530121 0.5 -25.2611 -1.5944 -1.23882e-41
0.503783 -0.0526186 0.5 -25.4272 -1.64085 1.59766e-42
0.509921 -0.0522183 0.5 -25.5717 -1.6868 1.24071e-23
0.51603 -0.0518112 0.5 -25.6837 -1.72937 1.9439e-24
0.522108 -0.0513982 0.5 -25.8037 -1.7705 2.63714e-24
0.528152 -0.05098 0.5 -25.9407 -1.81146 2.01002e-23
0.534159 -0.0505573 0.5 -26.0361 -1.84719 -9.45403e-25
0.54014 -0.0501296 0.5 -26.0682 -1.87901 -4.72625e-25
0.546102 -0.0496961 0.5 -26.115 -1.91571 1.42857e-24
0.552038 -0.0492571 0.5 -26.161 -1.95114 6.78326e-25
0.557939 -0.0488136 0.5 -26.1992 -1.98422 1.54807e-24
0.563803 -0.0483664 0.5 -26.2648 -2.01794 4.70603e-25
0.569628 -0.047916 0.5 -26.2874 -2.04611 1.67154e-23
0.575412 -0.047463 0.5 -26.2685 -2.07001 -1.23897e-27
0.58119 -0.0470047 0.5 -26.2713 -2.09747 -9.36764e-25
0.586964 -0.0465405 0.5 -26.2504 -2.125 -4.69232e-25
0.5927 -0.0460731 0.5 -26.2164 -2.14992 4.64617e-25
0.598397 -0.0456031 0.5 -26.1583 -2.17133 4.60883e-25
0.604052 -0.045131 0.5 -26.1639 -2.19712 4.88773e-42
0.609664 -0.0446572 0.5 -26.1564 -2.21948 1.71605e-23
0.615243 -0.0441814 0.5 -26.112 -2.23832 -3.54641e-41
0.620829 -0.0436999 0.5 -25.9957 -2.25315 -3.11963e-23
0.626413 -0.0432129 0.5 -25.834 -2.26547 9.18268e-25
0.631955 -0.0427242 0.5 -25.7383 -2.2814 5.08984e-25
0.637454 -0.0422343 0.5 -25.6354 -2.29523 4.52892e-25
0.642907 -0.0417437 0.5 -25.5363 -2.3078 -1.83029e-24
0.648313 -0.041253 0.5 -25.4321 -2.31844 -4.48625e-25
0.653694 -0.0407603 0.5 -25.3613 -2.33132 -1.66364e-23
0.659096 -0.0402614 0.5 -25.2263 -2.34077 4.51024e-25
0.664496 -0.0397577 0.5 -25.1049 -2.35254 2.90481e-23
0.669852 -0.0392536 0.5 -24.9792 -2.36144 2.30484e-23
0.675159 -0.0387495 0.5 -24.8343 -2.36823 3.03606e-23
0.680418 -0.0382459 0.5 -24.6517 -2.36891 3.53691e-23
0.685626 -0.0377433 0.5 -24.4289 -2.36565 2.97017e-24
0.690816 -0.0372389 0.5 -24.2778 -2.36804 -1.16164e-41
0.696038 -0.0367272 0.5 -24.101 -2.37078 -3.20381e-43
0.701263 -0.0362109 0.5 -23.92 -2.37288 1.4013e-44
0.706438 -0.0356954 0.5 -23.7377 -2.37355 -1.2531e-24
0.711561 -0.035181 0.5 -23.554 -2.37278 1.36896e-24
0.716633 -0.0346682 0.5 -23.3668 -2.37047 1.93072e-24
0.72165 -0.0341574 0.5 -23.18 -2.36697 1.06808e-27
0.726654 -0.0336446 0.5 -22.9854 -2.36207 -2.25624e-24
0.731704 -0.0331235 0.5 -22.7633 -2.357 -7.15037e-24
0.736758 -0.032598 0.5 -22.5802 -2.35604 7.2279e-42
0.741759 -0.0320742 0.5 -22.3542 -2.34849 1.42503e-23
0.746705 -0.0315527 0.5 -22.1354 -2.34171 2.103e-25
0.751594 -0.0310337 0.5 -21.934 -2.33444 9.36067e-42
0.756425 -0.0305178 0.5 -21.7314 -2.32697 -2.0741e-25
0.761255 -0.029999 0.5 -21.5286 -2.31808 -2.06857e-25
0.766142 -0.0294707 0.5 -21.3153 -2.31157 2.38469e-23
0.771031 -0.0289385 0.5 -21.0929 -2.30264 2.65649e-23
0.775861 -0.0284092 0.5 -20.859 -2.29237 2.04967e-25
0.780632 -0.0278832 0.5 -20.6292 -2.28054 -1.19396e-23
0.785341 -0.0273608 0.5 -20.374 -2.26569 -4.04864e-25
0.789989 -0.0268423 0.5 -20.1699 -2.25519 -2.01502e-25
0.79466 -0.0263184 0.5 -19.9509 -2.24317 -8.54693e-24
0.799401 -0.0257833 0.5 -19.7546 -2.2364 2.01547e-25
0.804125 -0.0252465 0.5 -19.526 -2.22442 2.00845e-25
0.808785 -0.0247137 0.5 -19.2701 -2.20888 0
0.81338 -0.0241853 0.5 -19.0572 -2.19684 2.10313e-24
0.817908 -0.0236617 0.5 -18.8492 -2.18431 7.55529e-24
0.822369 -0.0231434 0.5 -18.6461 -2.17121 -2.75764e-24
0.826908 -0.0226131 0.5 -18.4331 -2.15849 -3.92432e-25
0.831528 -0.0220701 0.5 -18.2078 -2.14593 -2.67645e-24
0.836084 -0.0215313 0.5 -17.9849 -2.13249 -1.41952e-42
0.840568 -0.0209979 0.5 -17.7719 -2.11899 -1.92673e-25
0.844979 -0.0204704 0.5 -17.5675 -2.10535 8.2016e-24
0.849317 -0.0199491 0.5 -17.3657 -2.09084 -1.90399e-25
0.853667 -0.0194238 0.5 -17.1665 -2.07645 -1.89823e-25
0.858113 -0.0188842 0.5 -16.9596 -2.06373 4.87652e-42
0.862564 -0.0183407 0.5 -16.7506 -2.05044 3.4486e-42
0.866936 -0.0178038 0.5 -16.552 -2.03731 2.25206e-24
0.871227 -0.0172741 0.5 -16.3611 -2.02409 -2.18953e-47
0.875436 -0.016752 0.5 -16.1789 -2.0109 2.33243e-24
0.879628 -0.0162295 0.5 -15.9998 -1.99752 5.78944e-24
0.88393 -0.0156905 0.5 -15.8084 -1.98546 1.80363e-24
0.88827 -0.0151435 0.5 -15.6141 -1.97305 8.16242e-24
0.892518 -0.014605 0.5 -15.4295 -1.96047 -1.84005e-25
0.896674 -0.0140755 0.5 -15.2567 -1.94803 -3.65986e-25
0.900735 -0.0135557 0.5 -15.0946 -1.93559 8.17446e-24
0.904824 -0.01303 0.5 -14.9333 -1.9231 6.05361e-43
0.909034 -0.0124858 0.5 -14.7615 -1.91269 -5.90322e-24
0.913238 -0.0119394 0.5 -14.591 -1.90168 7.81621e-24
0.917332 -0.0114042 0.5 -14.4306 -1.89038 1.84783e-24
0.921316 -0.010881 0.5 -14.2804 -1.87884 -2.02891e-24
0.925241 -0.0103633 0.5 -14.1395 -1.86717 -8.86144e-26
0.929306 -0.00982488 0.5 -13.9885 -1.8573 -7.70791e-24
0.933445 -0.00927338 0.5 -13.8344 -1.84788 -1.48332e-24
0.937451 -0.00873681 0.5 -13.6913 -1.83815 -9.98767e-25
0.941321 -0.00821597 0.5 -13.5722 -1.83003 -8.76896e-26
0.945168 -0.00769601 0.5 -13.4453 -1.81944 -1.59082e-23
0.949167 -0.00715299 0.5 -13.2995 -1.81074 -7.21821e-24
0.953183 -0.00660441 0.5 -13.1603 -1.80233 1.21513e-24
0.957024 -0.006077 0.5 -13.0392 -1.7942 -1.06344e-23
0.960743 -0.00556416 0.5 -12.9215 -1.78387 0
0.964631 -0.00502557 0.5 -12.776 -1.77393 -8.37018e-24
0.968598 -0.00447292 0.5 -12.6495 -1.76751 -8.42765e-26
0.972318 -0.00395183 0.5 -12.5243 -1.75703 -8.41264e-26
0.976051 -0.00342699 0.5 -12.3936 -1.7444 8.4389e-26
0.979926 -0.00287974 0.5 -12.2434 -1.73381 -1.21766e-23
0.983612 -0.00235633 0.5 -12.0775 -1.71791 5.98304e-25
0.987331 -0.00182587 0.5 -11.8993 -1.69917 3.50529e-28
0.991079 -0.00128868 0.5 -11.666 -1.67598 7.92896e-26
0.994786 -0.000754822 0.5 -11.3299 -1.63163 7.40042e-24
0.998359 -0.000238135 0.5 -10.614 -1.53474 -5.56315e-43
