/*--------------------------------*- C++ -*----------------------------------*\
  =========                 |
  \\      /  F ield         | OpenFOAM: The Open Source CFD Toolbox
   \\    /   O peration     | Website:  https://openfoam.org
    \\  /    A nd           | Version:  dev
     \\/     M anipulation  |
\*---------------------------------------------------------------------------*/
FoamFile
{
    version     2.0;
    format      ascii;
    class       volVectorField;
    location    "0";
    object      U;
}
// * * * * * * * * * * * * * * * * * * * * * * * * * * * * * * * * * * * * * //

dimensions      [0 1 -1 0 0 0 0];

internalField   nonuniform List<vector> 
14336
(
(18.0444 0 6.30916e-07)
(18.0443 0 2.09226e-06)
(1.30476 0 2.9192e-06)
(1.30476 0 2.9111e-06)
(1.30476 2.39912e-30 2.90036e-06)
(1.30476 2.38743e-30 2.88623e-06)
(1.30476 -9.4883e-30 2.86767e-06)
(1.30476 -2.25485e-35 2.84325e-06)
(1.30476 -9.30104e-30 2.81111e-06)
(1.30476 -3.66444e-29 2.7688e-06)
(1.30477 -1.79537e-29 2.71312e-06)
(1.30476 0 2.63985e-06)
(1.30477 6.73206e-29 2.54342e-06)
(1.30477 -6.39587e-29 2.41652e-06)
(1.30477 -1.19079e-28 2.24951e-06)
(1.30477 0 2.02972e-06)
(1.30477 -3.68438e-28 1.74044e-06)
(1.30476 -2.87815e-28 1.35971e-06)
(1.30477 0 8.58646e-07)
(1.30477 0 1.99231e-07)
(1.30477 0 -6.68616e-07)
(1.30477 -1.53621e-27 -1.81078e-06)
(1.30477 -5.61984e-27 -3.31396e-06)
(1.30477 -4.48608e-27 -5.29227e-06)
(1.30477 0 -7.8959e-06)
(1.30478 0 -1.13223e-05)
(1.30477 0 -1.58318e-05)
(1.30477 0 -2.1767e-05)
(1.30478 0 -2.95777e-05)
(1.30477 0 -3.98574e-05)
(1.30477 -7.24193e-25 -5.33869e-05)
(1.30478 -9.65496e-25 -7.1192e-05)
(1.30478 0 -9.46239e-05)
(1.30478 0 -0.000125462)
(1.30478 -9.0111e-24 -0.000166048)
(1.30478 -1.19067e-23 -0.000219463)
(1.30478 0 -0.000289759)
(1.30478 0 -0.000382269)
(1.30479 0 -0.000504015)
(1.30479 -1.44203e-22 -0.00066423)
(1.3048 -1.89917e-22 -0.000875049)
(1.30482 0 -0.00115242)
(1.30484 -6.58858e-22 -0.00151732)
(1.3049 -8.66961e-22 -0.00199717)
(1.30498 0 -0.00262783)
(1.30513 -6.00325e-21 -0.00345586)
(1.30539 -1.57745e-20 -0.00454111)
(1.30583 -2.07015e-20 -0.00595916)
(1.30658 1.35608e-20 -0.00780238)
(1.30788 3.53467e-20 -0.0101761)
(1.31007 0 -0.0131829)
(1.31375 -1.17337e-19 -0.0168798)
(1.31974 -4.41619e-19 -0.0211779)
(1.32903 -6.44566e-19 -0.0256396)
(1.34209 -8.11252e-19 -0.0291527)
(1.35691 -2.82798e-18 -0.0296526)
(1.36513 -6.88708e-19 -0.0247092)
(1.3511 0 -0.0141287)
(1.30662 9.38655e-20 -0.00145886)
(1.22284 3.3562e-17 0.00703966)
(1.05896 1.17134e-18 -0.0101963)
(0.854962 1.17381e-16 -0.0670935)
(0.626368 1.65288e-16 -0.117845)
(0.517116 0 0.184195)
(1.41479 0 -1.7946e-09)
(1.41479 8.96929e-34 -8.67402e-09)
(1.41479 9.6292e-33 -1.8624e-08)
(1.41479 3.61931e-32 -2.91668e-08)
(1.41479 3.34873e-32 -4.048e-08)
(1.41479 9.4546e-32 -5.71404e-08)
(1.41479 1.3559e-31 -8.19499e-08)
(1.41479 3.76412e-31 -1.13738e-07)
(1.41479 1.54085e-30 -1.55198e-07)
(1.41479 1.39218e-30 -2.10344e-07)
(1.41479 0 -2.83515e-07)
(1.41479 0 -3.78718e-07)
(1.41479 0 -5.03676e-07)
(1.4148 0 -6.68427e-07)
(1.4148 4.6891e-29 -8.85307e-07)
(1.4148 6.20107e-29 -1.17091e-06)
(1.4148 0 -1.54671e-06)
(1.4148 -4.32533e-28 -2.0413e-06)
(1.4148 -5.70395e-28 -2.69233e-06)
(1.4148 -1.50423e-27 -3.5492e-06)
(1.4148 -1.98177e-27 -4.67677e-06)
(1.4148 5.22238e-27 -6.16075e-06)
(1.4148 6.87671e-27 -8.11383e-06)
(1.4148 0 -1.06842e-05)
(1.4148 0 -1.40671e-05)
(1.4148 0 -1.85192e-05)
(1.4148 0 -2.43786e-05)
(1.4148 0 -3.20901e-05)
(1.4148 0 -4.22391e-05)
(1.4148 7.54284e-25 -5.5596e-05)
(1.4148 -3.22037e-28 -7.31749e-05)
(1.4148 -2.61317e-24 -9.63104e-05)
(1.4148 1.72057e-24 -0.000126759)
(1.4148 -1.2386e-27 -0.000166831)
(1.4148 5.96186e-24 -0.00021957)
(1.4148 -4.95442e-27 -0.000288979)
(1.4148 -2.06384e-23 -0.000380328)
(1.4148 5.43471e-23 -0.00050055)
(1.4148 7.15016e-23 -0.000658773)
(1.4148 0 -0.000867007)
(1.4148 -2.47816e-22 -0.00114106)
(1.4148 -9.78329e-22 -0.00150173)
(1.41479 -8.58157e-22 -0.0019764)
(1.41479 0 -0.00260107)
(1.41478 0 -0.00342313)
(1.41476 -7.8287e-21 -0.0045049)
(1.41473 -1.02979e-20 -0.00592827)
(1.41468 1.35576e-20 -0.0078008)
(1.41459 1.78297e-20 -0.0102635)
(1.41444 0 -0.0135008)
(1.41417 0 -0.0177523)
(1.4137 -1.62221e-19 -0.0233292)
(1.41286 -2.1285e-19 -0.0306257)
(1.41135 -3.06036e-19 -0.0401366)
(1.40858 1.45959e-18 -0.0524654)
(1.40336 6.82919e-19 -0.0683379)
(1.39331 -5.00814e-20 -0.0886566)
(1.37384 -3.19119e-18 -0.114749)
(1.33705 1.85545e-17 -0.148918)
(1.27003 5.69953e-17 -0.195303)
(1.15233 -2.64627e-20 -0.260788)
(0.961473 6.80865e-17 -0.347342)
(0.661178 6.26688e-16 -0.419313)
(0.174821 1.36792e-16 -0.307771)
(1.54563 -2.64092e-34 -1.02163e-08)
(1.54563 -4.84332e-34 -1.87364e-08)
(1.54563 0 -2.86997e-08)
(1.54563 0 -5.70328e-08)
(1.54563 0 -8.39473e-08)
(1.54563 0 -1.14309e-07)
(1.54563 0 -1.58042e-07)
(1.54563 0 -2.07563e-07)
(1.54563 1.80391e-30 -2.72524e-07)
(1.54563 7.17446e-30 -3.61301e-07)
(1.54563 6.32892e-30 -4.78101e-07)
(1.54563 1.67918e-29 -6.34128e-07)
(1.54563 -2.61493e-33 -8.3942e-07)
(1.54563 2.93708e-29 -1.10895e-06)
(1.54563 -1.17672e-32 -1.46363e-06)
(1.54563 1.02263e-28 -1.93033e-06)
(1.54563 -4.70687e-32 -2.5446e-06)
(1.54563 -3.55166e-28 -3.35296e-06)
(1.54563 -9.35835e-28 -4.41664e-06)
(1.54563 -1.23226e-27 -5.81645e-06)
(1.54563 0 -7.65878e-06)
(1.54563 8.54758e-27 -1.00835e-05)
(1.54563 1.12507e-26 -1.32748e-05)
(1.54563 2.96294e-26 -1.74748e-05)
(1.54563 7.79988e-26 -2.30024e-05)
(1.54563 5.13292e-26 -3.02772e-05)
(1.54563 -1.35156e-25 -3.98515e-05)
(1.54563 -5.33648e-25 -5.24523e-05)
(1.54563 1.5062e-28 -6.90359e-05)
(1.54563 6.16221e-25 -9.08617e-05)
(1.54563 1.62257e-24 -0.000119586)
(1.54563 2.13492e-24 -0.000157391)
(1.54563 0 -0.000207145)
(1.54563 -7.39891e-24 -0.000272626)
(1.54563 -2.92111e-23 -0.000358805)
(1.54563 -2.56249e-23 -0.000472226)
(1.54563 6.74793e-23 -0.000621498)
(1.54563 1.77593e-22 -0.000817953)
(1.54563 1.16846e-22 -0.00107651)
(1.54563 3.07699e-22 -0.00141679)
(1.54563 -1.60661e-25 -0.00186463)
(1.54563 -5.32777e-22 -0.00245404)
(1.54562 0 -0.00322975)
(1.54562 -3.69329e-21 -0.00425066)
(1.5456 2.14211e-24 -0.00559427)
(1.54557 6.39459e-21 -0.00736258)
(1.54553 -1.68405e-20 -0.00968984)
(1.54545 -2.21537e-20 -0.0127527)
(1.54531 0 -0.0167837)
(1.54507 0 -0.0220881)
(1.54466 0 -0.0290708)
(1.54394 0 -0.0382577)
(1.54269 0 -0.0503477)
(1.54053 0 -0.0662557)
(1.53676 1.09271e-18 -0.0871858)
(1.53018 -2.1039e-21 -0.114727)
(1.51865 -1.56402e-18 -0.150985)
(1.49837 -1.03965e-17 -0.198804)
(1.46257 4.05911e-17 -0.262137)
(1.39931 0 -0.346612)
(1.28772 0 -0.459791)
(1.09101 0 -0.607027)
(0.734029 -1.51206e-17 -0.764651)
(0.0332172 -3.28105e-16 -0.73873)
(1.69969 0 -1.14437e-08)
(1.69969 0 -2.84695e-08)
(1.69969 0 -3.49039e-08)
(1.69969 0 -4.07013e-08)
(1.69969 0 -5.83235e-08)
(1.69969 0 -9.66683e-08)
(1.69969 -5.02945e-31 -1.51962e-07)
(1.69969 -1.45764e-30 -2.20216e-07)
(1.69969 -1.03046e-30 -3.11368e-07)
(1.69969 -5.6881e-30 -4.29612e-07)
(1.69969 1.33368e-33 -5.84105e-07)
(1.69969 1.045e-29 -7.89314e-07)
(1.69969 0 -1.05954e-06)
(1.69969 0 -1.41573e-06)
(1.69969 -9.98185e-29 -1.88431e-06)
(1.69969 -1.32472e-28 -2.50111e-06)
(1.69969 0 -3.31293e-06)
(1.69969 -9.28503e-28 -4.38137e-06)
(1.6997 -1.22633e-27 -5.7878e-06)
(1.69969 0 -7.63861e-06)
(1.6997 0 -1.00745e-05)
(1.6997 -1.12603e-26 -1.32804e-05)
(1.6997 -1.48341e-26 -1.74996e-05)
(1.6997 0 -2.30526e-05)
(1.6997 0 -3.03609e-05)
(1.6997 0 -3.99793e-05)
(1.6997 0 -5.2638e-05)
(1.6997 0 -6.92983e-05)
(1.6997 0 -9.12248e-05)
(1.6997 1.62974e-24 -0.000120082)
(1.6997 2.14445e-24 -0.000158061)
(1.6997 0 -0.000208046)
(1.6997 7.43393e-24 -0.00027383)
(1.6997 9.78065e-24 -0.000360409)
(1.6997 0 -0.000474355)
(1.6997 0 -0.000624321)
(1.6997 0 -0.00082169)
(1.6997 0 -0.00108145)
(1.6997 0 -0.00142331)
(1.6997 0 -0.00187324)
(1.6997 0 -0.0024654)
(1.69969 0 -0.00324473)
(1.69969 0 -0.00427042)
(1.69968 0 -0.00562034)
(1.69967 0 -0.00739697)
(1.69964 1.69269e-20 -0.00973521)
(1.6996 -1.39839e-23 -0.0128126)
(1.69952 -2.93056e-20 -0.016863)
(1.69938 7.71927e-20 -0.0221939)
(1.69915 1.01539e-19 -0.0292112)
(1.69874 0 -0.0384461)
(1.69804 0 -0.0506035)
(1.69682 0 -0.0666117)
(1.6947 -1.22052e-18 -0.0876966)
(1.69103 -3.07281e-18 -0.115481)
(1.68465 -7.1577e-18 -0.152126)
(1.67355 -5.5792e-18 -0.200546)
(1.65417 -3.26712e-18 -0.264712)
(1.62021 2.99446e-18 -0.350192)
(1.56031 5.18205e-17 -0.465061)
(1.45339 6.91512e-17 -0.621278)
(1.25752 -5.5721e-16 -0.835068)
(0.872465 0 -1.11206)
(-0.0143913 0 -1.27736)
(1.85552 0 -1.18061e-08)
(1.85552 -2.86671e-33 -2.77228e-08)
(1.85552 -1.53229e-32 -4.93943e-08)
(1.85552 -1.6567e-32 -8.01087e-08)
(1.85552 0 -1.18837e-07)
(1.85552 2.79844e-31 -1.6911e-07)
(1.85552 3.80983e-31 -2.30245e-07)
(1.85552 -1.03749e-30 -3.13441e-07)
(1.85552 1.38933e-30 -4.1966e-07)
(1.85552 3.68939e-30 -5.57343e-07)
(1.85552 9.81602e-30 -7.41224e-07)
(1.85552 1.3051e-29 -9.85653e-07)
(1.85552 3.46072e-29 -1.30647e-06)
(1.85552 4.57773e-29 -1.72847e-06)
(1.85552 0 -2.28388e-06)
(1.85552 0 -3.01453e-06)
(1.85552 0 -3.97638e-06)
(1.85552 0 -5.24233e-06)
(1.85552 0 -6.90837e-06)
(1.85553 0 -9.10093e-06)
(1.85552 0 -1.19865e-05)
(1.85552 0 -1.57843e-05)
(1.85553 0 -2.07825e-05)
(1.85553 4.64228e-26 -2.73606e-05)
(1.85553 -2.76585e-29 -3.6018e-05)
(1.85553 -8.04192e-26 -4.74121e-05)
(1.85553 0 -6.24081e-05)
(1.85553 5.57676e-25 -8.21443e-05)
(1.85553 7.3369e-25 -0.000108119)
(1.85553 1.93247e-24 -0.000142305)
(1.85553 -1.47512e-27 -0.000187297)
(1.85553 -6.69424e-24 -0.000246511)
(1.85553 -4.40422e-24 -0.000324444)
(1.85553 0 -0.000427011)
(1.85553 0 -0.000562)
(1.85553 4.01979e-23 -0.000739661)
(1.85553 1.58689e-22 -0.000973481)
(1.85553 1.3918e-22 -0.00128121)
(1.85553 0 -0.00168622)
(1.85553 -4.82562e-22 -0.00221926)
(1.85553 -6.34682e-22 -0.00292079)
(1.85552 1.67202e-21 -0.00384408)
(1.85552 4.39979e-21 -0.00505923)
(1.85551 8.6874e-21 -0.00665852)
(1.8555 7.61871e-21 -0.00876336)
(1.85548 -2.00729e-20 -0.0115336)
(1.85543 2.36007e-23 -0.0151796)
(1.85536 3.47458e-20 -0.0199784)
(1.85524 0 -0.0262944)
(1.85502 2.0112e-19 -0.0346071)
(1.85464 -3.17276e-19 -0.045552)
(1.85399 4.02426e-19 -0.0599603)
(1.85286 2.05085e-18 -0.0789339)
(1.85091 1.44664e-18 -0.103929)
(1.84751 0 -0.136884)
(1.84162 1.83404e-18 -0.180384)
(1.83137 6.62573e-18 -0.237929)
(1.81351 -1.75323e-17 -0.314349)
(1.78225 7.57014e-17 -0.416521)
(1.7271 0 -0.554728)
(1.62824 0 -0.745408)
(1.44409 1.90692e-15 -1.01617)
(1.06584 7.27439e-15 -1.41432)
(0.0888197 0 -1.94234)
(2.00046 -1.29663e-34 -1.00316e-08)
(2.00046 -3.70274e-34 -2.8648e-08)
(2.00046 0 -3.66537e-08)
(2.00046 0 -5.47677e-08)
(2.00046 -8.34702e-32 -1.00867e-07)
(2.00046 -1.29383e-31 -1.56372e-07)
(2.00046 -7.54441e-31 -2.27895e-07)
(2.00046 -1.062e-30 -3.2085e-07)
(2.00046 2.89774e-30 -4.37591e-07)
(2.00046 -3.93432e-30 -5.93872e-07)
(2.00046 -1.06193e-29 -8.0189e-07)
(2.00046 0 -1.07584e-06)
(2.00046 3.79859e-29 -1.4335e-06)
(2.00046 1.513e-28 -1.90326e-06)
(2.00046 -5.12214e-32 -2.52269e-06)
(2.00046 -1.76866e-28 -3.33764e-06)
(2.00046 0 -4.40985e-06)
(2.00046 1.23475e-27 -5.82124e-06)
(2.00046 1.62802e-27 -7.67844e-06)
(2.00046 0 -1.01229e-05)
(2.00046 5.66064e-27 -1.33398e-05)
(2.00046 7.45369e-27 -1.75735e-05)
(2.00046 0 -2.31457e-05)
(2.00046 0 -3.04794e-05)
(2.00046 -6.81489e-26 -4.01313e-05)
(2.00047 -8.96686e-26 -5.28342e-05)
(2.00047 0 -6.95528e-05)
(2.00047 0 -9.15564e-05)
(2.00047 0 -0.000120516)
(2.00047 -2.15622e-24 -0.000158629)
(2.00047 -5.67438e-24 -0.000208791)
(2.00047 -3.73305e-24 -0.00027481)
(2.00047 0 -0.000361698)
(2.00047 0 -0.000476053)
(2.00047 0 -0.000626557)
(2.00047 -4.48676e-23 -0.000824638)
(2.00047 -5.9e-23 -0.00108533)
(2.00047 0 -0.00142844)
(2.00047 -4.09301e-22 -0.00188001)
(2.00047 -5.38173e-22 -0.00247432)
(2.00047 7.09134e-22 -0.00325651)
(2.00046 9.3236e-22 -0.00428597)
(2.00046 0 -0.00564085)
(2.00045 6.46924e-21 -0.00742405)
(2.00044 1.70202e-20 -0.00977097)
(2.00042 1.11945e-20 -0.0128598)
(2.00038 2.95046e-20 -0.0169242)
(2.00032 3.87888e-20 -0.0222761)
(2.0002 0 -0.0293191)
(2.00001 3.5144e-19 -0.0385906)
(1.99966 -3.98698e-20 -0.0507918)
(1.99907 4.33476e-19 -0.0668601)
(1.99804 1.6619e-18 -0.0880197)
(1.99626 3.34696e-18 -0.115897)
(1.99318 -4.26363e-18 -0.152655)
(1.98782 -1.81278e-17 -0.201195)
(1.97851 7.43192e-18 -0.265435)
(1.96231 -7.65366e-18 -0.350818)
(1.93402 1.07327e-16 -0.465141)
(1.8842 0 -0.620214)
(1.79477 -1.2083e-15 -0.834806)
(1.62634 3.38204e-15 -1.14259)
(1.27614 8.72267e-15 -1.63136)
(0.335481 6.65102e-15 -2.5622)
(2.12889 0 -8.7277e-09)
(2.12889 -2.47037e-34 2.39556e-09)
(2.12889 3.22589e-33 -1.03869e-08)
(2.12889 4.1085e-32 -6.61984e-08)
(2.1289 -4.45846e-32 -1.07688e-07)
(2.1289 -1.31891e-31 -1.59375e-07)
(2.1289 0 -2.40569e-07)
(2.1289 1.14171e-30 -3.44733e-07)
(2.1289 4.70673e-30 -4.73693e-07)
(2.1289 4.24543e-30 -6.40994e-07)
(2.1289 0 -8.6142e-07)
(2.1289 0 -1.15382e-06)
(2.1289 -4.0842e-29 -1.54034e-06)
(2.1289 5.43126e-29 -2.04702e-06)
(2.1289 2.87632e-28 -2.71203e-06)
(2.1289 1.90244e-28 -3.5882e-06)
(2.1289 0 -4.74122e-06)
(2.1289 0 -6.25885e-06)
(2.1289 0 -8.2562e-06)
(2.1289 0 -1.08846e-05)
(2.1289 6.09278e-27 -1.4344e-05)
(2.1289 8.02111e-27 -1.88971e-05)
(2.1289 0 -2.48895e-05)
(2.1289 0 -3.27762e-05)
(2.1289 0 -4.3156e-05)
(2.1289 0 -5.68171e-05)
(2.1289 0 -7.47967e-05)
(2.1289 6.69997e-25 -9.84602e-05)
(2.1289 8.81039e-25 -0.000129604)
(2.1289 0 -0.000170594)
(2.1289 0 -0.000224542)
(2.1289 0 -0.000295543)
(2.1289 0 -0.00038899)
(2.1289 -1.39484e-23 -0.000511977)
(2.1289 -1.83358e-23 -0.000673844)
(2.12891 -4.83412e-23 -0.000886882)
(2.12891 -6.35408e-23 -0.00116727)
(2.12891 -1.67548e-22 -0.00153629)
(2.12891 2.20896e-22 -0.00202196)
(2.12891 5.79708e-22 -0.00266117)
(2.1289 0 -0.00350246)
(2.1289 0 -0.00460969)
(2.1289 -2.64873e-21 -0.00606696)
(2.12889 -1.0454e-20 -0.00798493)
(2.12888 -9.16295e-21 -0.0105092)
(2.12886 2.41708e-20 -0.0138316)
(2.12883 -6.07414e-23 -0.0182055)
(2.12877 -4.18007e-20 -0.0239596)
(2.12866 0 -0.0315336)
(2.12849 0 -0.0415061)
(2.12817 -2.30735e-19 -0.0546326)
(2.12764 4.19617e-20 -0.071915)
(2.1267 6.61228e-19 -0.0946728)
(2.12509 1.84318e-18 -0.124663)
(2.12228 0 -0.164204)
(2.11741 -7.34574e-18 -0.216415)
(2.10897 1.32455e-17 -0.285519)
(2.0943 -1.37323e-16 -0.37737)
(2.06871 0 -0.500328)
(2.02351 -1.6385e-15 -0.666476)
(1.94082 -8.29205e-15 -0.894018)
(1.78198 -1.18316e-15 -1.22208)
(1.46075 -3.81153e-14 -1.77146)
(0.629872 2.11105e-14 -3.0216)
(2.2394 0 -1.7796e-09)
(2.2394 0 -2.97044e-08)
(2.2394 1.57494e-32 -7.61386e-08)
(2.2394 -2.52825e-32 -1.22176e-07)
(2.2394 -7.17523e-32 -1.73435e-07)
(2.2394 0 -2.29044e-07)
(2.2394 0 -3.04051e-07)
(2.2394 0 -4.0449e-07)
(2.2394 3.57588e-30 -5.39543e-07)
(2.2394 -4.77301e-30 -7.1962e-07)
(2.2394 -1.26212e-29 -9.52389e-07)
(2.2394 0 -1.26052e-06)
(2.2394 4.41917e-29 -1.66537e-06)
(2.2394 5.82738e-29 -2.19738e-06)
(2.2394 0 -2.89731e-06)
(2.2394 0 -3.81817e-06)
(2.2394 0 -5.0309e-06)
(2.2394 -1.40849e-27 -6.62658e-06)
(2.2394 -1.85323e-27 -8.72676e-06)
(2.2394 0 -1.14905e-05)
(2.2394 0 -1.51281e-05)
(2.2394 0 -1.99157e-05)
(2.2394 0 -2.62169e-05)
(2.2394 0 -3.45099e-05)
(2.2394 0 -4.54247e-05)
(2.23941 0 -5.97902e-05)
(2.23941 0 -7.86971e-05)
(2.23941 -7.06385e-25 -0.000103581)
(2.23941 -9.28314e-25 -0.000136332)
(2.23941 -2.44852e-24 -0.000179437)
(2.23941 -3.21738e-24 -0.000236168)
(2.23941 4.24389e-24 -0.000310835)
(2.23941 -5.59846e-24 -0.000409106)
(2.23941 3.25577e-26 -0.000538445)
(2.23941 1.93265e-23 -0.000708672)
(2.23941 0 -0.000932715)
(2.23941 0 -0.00122759)
(2.23941 1.76755e-22 -0.00161568)
(2.23941 2.32134e-22 -0.00212646)
(2.23941 -6.12669e-22 -0.00279872)
(2.23941 -8.04527e-22 -0.00368351)
(2.23941 0 -0.00484801)
(2.2394 2.79591e-21 -0.00638066)
(2.2394 3.67074e-21 -0.00839787)
(2.23939 -1.72782e-20 -0.0110527)
(2.23937 -1.27218e-20 -0.0145472)
(2.23934 -1.51743e-20 -0.0191461)
(2.23928 0 -0.0251996)
(2.23919 0 -0.0331685)
(2.23903 0 -0.0436549)
(2.23874 -4.03824e-19 -0.0574621)
(2.23825 -1.01529e-18 -0.075639)
(2.23739 0 -0.0995793)
(2.23591 -2.0333e-18 -0.131117)
(2.23333 2.27814e-17 -0.172705)
(2.22887 -2.751e-20 -0.227603)
(2.22113 2.23866e-17 -0.300255)
(2.20769 -1.00046e-16 -0.396739)
(2.18405 2.95863e-17 -0.525282)
(2.14074 -1.89444e-15 -0.696569)
(2.05749 -2.12205e-14 -0.930576)
(1.89919 0 -1.27554)
(1.60053 -4.01633e-14 -1.86411)
(0.892255 -2.85283e-14 -3.32503)
(2.33271 0 -2.26937e-08)
(2.33271 0 -2.85908e-08)
(2.33271 0 -2.40287e-08)
(2.33271 2.58488e-32 -6.24053e-08)
(2.33271 5.00567e-32 -1.20936e-07)
(2.33271 0 -1.82224e-07)
(2.33271 0 -2.58195e-07)
(2.33271 0 -3.67061e-07)
(2.33271 0 -5.08359e-07)
(2.33271 0 -6.88395e-07)
(2.33271 0 -9.26157e-07)
(2.33271 0 -1.24403e-06)
(2.33272 0 -1.66257e-06)
(2.33272 0 -2.21399e-06)
(2.33272 0 -2.93937e-06)
(2.33272 -4.14401e-28 -3.89417e-06)
(2.33272 -5.47481e-28 -5.15107e-06)
(2.33272 0 -6.80468e-06)
(2.33272 0 -8.98091e-06)
(2.33272 0 -1.18455e-05)
(2.33272 6.65987e-27 -1.56158e-05)
(2.33272 8.76142e-27 -2.05779e-05)
(2.33272 2.31409e-26 -2.71091e-05)
(2.33272 3.0422e-26 -3.57052e-05)
(2.33272 -8.03534e-26 -4.70187e-05)
(2.33272 -1.05579e-25 -6.19091e-05)
(2.33272 0 -8.15071e-05)
(2.33272 0 -0.000107301)
(2.33272 9.66908e-25 -0.00014125)
(2.33272 1.26968e-24 -0.000185931)
(2.33272 0 -0.000244739)
(2.33272 4.4157e-24 -0.000322139)
(2.33272 5.7963e-24 -0.00042401)
(2.33272 -1.53114e-23 -0.000558087)
(2.33272 -2.00945e-23 -0.000734553)
(2.33272 0 -0.000966808)
(2.33272 0 -0.00127249)
(2.33272 0 -0.00167482)
(2.33272 -4.84789e-22 -0.00220435)
(2.33272 2.42989e-24 -0.00290128)
(2.33272 8.37247e-22 -0.00381856)
(2.33272 -2.21375e-21 -0.00502584)
(2.33272 -6.85458e-21 -0.00661469)
(2.33271 0 -0.00870618)
(2.3327 -1.5807e-20 -0.0114588)
(2.33269 0 -0.0150815)
(2.33266 -7.90334e-21 -0.0198502)
(2.33261 0 -0.026126)
(2.33252 -1.26446e-19 -0.0343872)
(2.33237 0 -0.0452613)
(2.3321 4.21534e-19 -0.0595758)
(2.33164 5.52308e-19 -0.0784225)
(2.33084 0 -0.103242)
(2.32946 4.0405e-18 -0.135938)
(2.32705 8.70583e-22 -0.179044)
(2.32289 0 -0.235939)
(2.31566 -1.10708e-16 -0.311169)
(2.30293 2.32787e-17 -0.410606)
(2.27913 0 -0.54104)
(2.23162 -1.5308e-14 -0.714349)
(2.14116 -1.40757e-14 -0.957575)
(1.98031 -8.90173e-18 -1.31768)
(1.69843 -2.37974e-18 -1.92813)
(1.09741 -3.72103e-14 -3.52127)
(2.41055 0 -2.48273e-08)
(2.41055 5.6374e-33 -5.44977e-08)
(2.41055 1.07042e-32 -3.44549e-08)
(2.41055 1.21506e-32 -1.94605e-08)
(2.41055 7.49255e-32 -6.01532e-08)
(2.41055 1.03246e-31 -1.24544e-07)
(2.41055 6.92423e-31 -2.08454e-07)
(2.41055 2.12557e-30 -3.20133e-07)
(2.41055 -1.54862e-30 -4.65279e-07)
(2.41056 4.36157e-30 -6.5501e-07)
(2.41056 2.39581e-29 -9.01191e-07)
(2.41056 -1.63713e-29 -1.22743e-06)
(2.41056 -4.40913e-29 -1.65856e-06)
(2.41056 0 -2.22461e-06)
(2.41056 1.58328e-28 -2.96891e-06)
(2.41056 2.1022e-28 -3.94913e-06)
(2.41056 5.59415e-28 -5.2392e-06)
(2.41056 -7.43158e-28 -6.93709e-06)
(2.41056 5.41563e-30 -9.17141e-06)
(2.41056 2.58364e-27 -1.21122e-05)
(2.41056 6.84192e-27 -1.59828e-05)
(2.41056 8.99945e-27 -2.10772e-05)
(2.41056 0 -2.77823e-05)
(2.41056 6.28011e-26 -3.66075e-05)
(2.41056 8.24784e-26 -4.82229e-05)
(2.41056 0 -6.35107e-05)
(2.41056 0 -8.36321e-05)
(2.41056 0 -0.000110115)
(2.41056 0 -0.000144972)
(2.41056 0 -0.000190849)
(2.41056 0 -0.00025123)
(2.41056 0 -0.000330703)
(2.41056 0 -0.000435303)
(2.41056 1.58217e-23 -0.000572975)
(2.41056 2.07331e-23 -0.000754175)
(2.41057 0 -0.000992664)
(2.41057 0 -0.00130656)
(2.41057 0 -0.0017197)
(2.41057 -5.01605e-22 -0.00226346)
(2.41057 -1.31736e-21 -0.00297914)
(2.41057 -8.64822e-22 -0.00392111)
(2.41056 0 -0.00516091)
(2.41056 2.37653e-30 -0.00679271)
(2.41056 7.9498e-21 -0.00894044)
(2.41055 4.53692e-21 -0.0117673)
(2.41053 4.12767e-20 -0.0154878)
(2.4105 4.4242e-20 -0.0203849)
(2.41046 -1.74898e-20 -0.0268309)
(2.41037 -6.81028e-20 -0.0353151)
(2.41023 5.22628e-19 -0.0464829)
(2.40998 0 -0.0611845)
(2.40954 0 -0.0805403)
(2.40877 -5.69749e-18 -0.106029)
(2.40745 4.36354e-18 -0.139604)
(2.40516 -1.40177e-17 -0.18386)
(2.40118 6.90613e-18 -0.242236)
(2.39413 4.36036e-16 -0.319057)
(2.38046 -6.47806e-17 -0.418837)
(2.35133 7.94651e-15 -0.549359)
(2.29457 -3.06375e-14 -0.729167)
(2.19682 5.63402e-16 -0.982492)
(2.0344 0 -1.35178)
(1.7655 0 -1.97444)
(1.25021 4.1795e-16 -3.64633)
(2.47495 2.44432e-34 -1.89055e-08)
(2.47496 5.61528e-34 -4.34397e-08)
(2.47496 0 -6.26126e-08)
(2.47496 0 -9.16128e-08)
(2.47496 0 -1.34658e-07)
(2.47496 0 -1.99154e-07)
(2.47496 0 -2.79119e-07)
(2.47496 0 -3.8789e-07)
(2.47496 0 -5.35104e-07)
(2.47496 0 -7.24518e-07)
(2.47496 0 -9.77737e-07)
(2.47496 0 -1.31282e-06)
(2.47496 4.68072e-29 -1.75187e-06)
(2.47496 6.20619e-29 -2.32818e-06)
(2.47496 0 -3.08682e-06)
(2.47496 0 -4.08595e-06)
(2.47496 0 -5.40166e-06)
(2.47496 -1.53119e-27 -7.13341e-06)
(2.47496 -2.0137e-27 -9.41202e-06)
(2.47496 0 -1.24116e-05)
(2.47496 7.04406e-27 -1.63595e-05)
(2.47496 9.24469e-27 -2.15556e-05)
(2.47496 2.44969e-26 -2.83947e-05)
(2.47496 -3.24591e-26 -3.73965e-05)
(2.47496 -8.46521e-26 -4.92445e-05)
(2.47496 0 -6.48388e-05)
(2.47496 2.95679e-25 -8.53639e-05)
(2.47497 -3.92051e-25 -0.000112379)
(2.47497 -1.0202e-24 -0.000147936)
(2.47497 0 -0.000194736)
(2.47497 0 -0.000256334)
(2.47497 0 -0.000337408)
(2.47497 1.23747e-23 -0.000444119)
(2.47497 -1.20887e-25 -0.00058457)
(2.47497 -2.13132e-23 -0.000769432)
(2.47497 5.6603e-23 -0.00101275)
(2.47497 7.39637e-23 -0.001333)
(2.47497 0 -0.00175451)
(2.47497 0 -0.0023093)
(2.47497 0 -0.00303952)
(2.47497 8.98483e-22 -0.00400063)
(2.47497 1.17279e-21 -0.00526564)
(2.47496 4.19275e-21 -0.00693067)
(2.47496 4.19274e-21 -0.00912207)
(2.47495 -8.38545e-21 -0.0120067)
(2.47494 0 -0.0158033)
(2.47491 0 -0.0208006)
(2.47486 -6.7081e-20 -0.027378)
(2.47478 0 -0.0360359)
(2.47464 5.36596e-19 -0.0474325)
(2.4744 4.53664e-19 -0.0624353)
(2.47397 5.90714e-19 -0.0821868)
(2.47322 -1.44471e-17 -0.108195)
(2.47193 -2.0526e-18 -0.142451)
(2.46969 -6.85198e-17 -0.187581)
(2.46565 -1.52385e-17 -0.246818)
(2.45742 -1.54176e-15 -0.3232)
(2.43824 4.22652e-16 -0.422136)
(2.39964 2.47273e-14 -0.557958)
(2.335 1.51016e-14 -0.745684)
(2.23274 2.88341e-14 -1.00435)
(2.07071 -5.19655e-14 -1.37955)
(1.81255 2.50133e-16 -2.01062)
(1.36428 4.27777e-16 -3.72488)
(2.52794 0 -1.49131e-08)
(2.52794 0 -6.05997e-08)
(2.52794 0 -8.89872e-08)
(2.52794 -3.76533e-32 -9.06844e-08)
(2.52794 -5.031e-32 -1.21286e-07)
(2.52794 0 -1.84675e-07)
(2.52794 -8.98563e-31 -2.6955e-07)
(2.52794 -1.24848e-30 -3.75307e-07)
(2.52794 0 -5.17087e-07)
(2.52794 0 -7.14154e-07)
(2.52794 0 -9.75979e-07)
(2.52794 -3.52549e-29 -1.31466e-06)
(2.52794 -4.6944e-29 -1.75626e-06)
(2.52794 0 -2.34189e-06)
(2.52794 0 -3.11415e-06)
(2.52794 0 -4.12826e-06)
(2.52794 -5.90037e-28 -5.46334e-06)
(2.52794 -7.76158e-28 -7.2212e-06)
(2.52794 2.06475e-27 -9.53445e-06)
(2.52794 2.70963e-27 -1.25798e-05)
(2.52794 0 -1.65884e-05)
(2.52795 0 -2.18643e-05)
(2.52795 0 -2.88086e-05)
(2.52795 0 -3.7949e-05)
(2.52795 0 -4.99797e-05)
(2.52795 -2.3031e-25 -6.58148e-05)
(2.52795 2.68728e-27 -8.66572e-05)
(2.52795 3.96561e-25 -0.00011409)
(2.52795 0 -0.000150199)
(2.52795 0 -0.000197725)
(2.52795 0 -0.000260281)
(2.52795 0 -0.000342618)
(2.52795 0 -0.000450993)
(2.52795 0 -0.000593638)
(2.52795 0 -0.000781391)
(2.52795 0 -0.00102852)
(2.52795 0 -0.00135379)
(2.52795 0 -0.00178192)
(2.52795 0 -0.00234544)
(2.52795 0 -0.00308716)
(2.52795 0 -0.00406344)
(2.52795 -3.09864e-22 -0.00534831)
(2.52795 -3.18475e-21 -0.00703996)
(2.52794 4.2825e-21 -0.00926608)
(2.52793 -1.71299e-20 -0.0121961)
(2.52792 0 -0.0160534)
(2.52789 6.85183e-20 -0.0211298)
(2.52785 0 -0.0278123)
(2.52777 0 -0.0366083)
(2.52763 0 -0.0481872)
(2.52738 1.72001e-18 -0.0634298)
(2.52695 -6.11265e-19 -0.0834971)
(2.52621 -8.76358e-18 -0.109919)
(2.5249 3.50281e-17 -0.144706)
(2.52252 -2.09836e-16 -0.190294)
(2.51728 0 -0.248685)
(2.5037 -2.20406e-15 -0.323796)
(2.47547 0 -0.427528)
(2.42961 1.63029e-14 -0.570013)
(2.36035 3.10345e-14 -0.761205)
(2.25635 2.91968e-14 -1.02282)
(2.09628 -5.27639e-14 -1.40314)
(1.84737 -1.26904e-16 -2.04014)
(1.45198 -2.16529e-16 -3.76724)
(2.57135 0 -2.30561e-08)
(2.57135 -1.00058e-32 -9.66804e-08)
(2.57135 -1.65763e-32 -1.60227e-07)
(2.57135 8.04342e-32 -1.93928e-07)
(2.57135 1.07693e-31 -2.59834e-07)
(2.57135 0 -3.41072e-07)
(2.57135 0 -4.32396e-07)
(2.57135 1.8598e-30 -5.57067e-07)
(2.57135 2.36317e-30 -7.092e-07)
(2.57135 -1.21447e-29 -9.05589e-07)
(2.57135 -3.13348e-29 -1.16866e-06)
(2.57135 -6.09602e-29 -1.51114e-06)
(2.57135 -1.0557e-28 -1.96078e-06)
(2.57135 -6.86396e-29 -2.55356e-06)
(2.57135 0 -3.3343e-06)
(2.57135 0 -4.36299e-06)
(2.57135 6.2293e-28 -5.71482e-06)
(2.57135 -8.25833e-28 -7.49356e-06)
(2.57135 2.11289e-29 -9.83509e-06)
(2.57135 -2.86345e-27 -1.29167e-05)
(2.57135 -7.38788e-27 -1.69728e-05)
(2.57135 0 -2.23118e-05)
(2.57135 0 -2.93393e-05)
(2.57135 -6.83627e-26 -3.85892e-05)
(2.57136 -8.89889e-26 -5.07647e-05)
(2.57136 -2.37604e-25 -6.67909e-05)
(2.57136 -3.09075e-25 -8.78854e-05)
(2.57136 0 -0.000115651)
(2.57136 0 -0.000152199)
(2.57136 0 -0.000200304)
(2.57136 0 -0.000263624)
(2.57136 0 -0.000346969)
(2.57136 0 -0.000456672)
(2.57136 0 -0.000601071)
(2.57136 0 -0.000791137)
(2.57136 -6.05718e-23 -0.00104131)
(2.57136 -2.38216e-22 -0.00137061)
(2.57136 1.093e-21 -0.00180393)
(2.57136 8.28657e-22 -0.0023746)
(2.57136 1.45234e-21 -0.00312558)
(2.57136 9.47826e-22 -0.00411406)
(2.57136 2.17802e-21 -0.00541517)
(2.57136 0 -0.00712765)
(2.57135 8.88065e-21 -0.00938194)
(2.57134 1.14545e-20 -0.0123494)
(2.57133 6.96957e-20 -0.0162548)
(2.5713 2.88954e-20 -0.0213963)
(2.57126 -5.2539e-20 -0.0281636)
(2.57117 -5.5752e-19 -0.0370724)
(2.57103 0 -0.0487997)
(2.57078 2.72537e-18 -0.0642389)
(2.57034 6.36719e-19 -0.0845649)
(2.56957 1.78247e-17 -0.11132)
(2.5681 1.11811e-16 -0.146342)
(2.56454 -1.35966e-16 -0.190864)
(2.55425 4.38707e-15 -0.24785)
(2.53231 0 -0.327627)
(2.4978 -5.43284e-17 -0.437048)
(2.44792 1.59985e-14 -0.581806)
(2.37676 -3.34794e-17 -0.774551)
(2.27289 -7.89338e-17 -1.0385)
(2.11554 -5.34981e-14 -1.42279)
(1.87494 1.26309e-16 -2.06377)
(1.52215 -6.28828e-14 -3.77633)
(2.6068 0 -1.18618e-08)
(2.6068 0 -3.54396e-08)
(2.6068 0 -6.51251e-08)
(2.6068 4.23512e-32 -1.01579e-07)
(2.6068 6.3526e-32 -1.52777e-07)
(2.6068 0 -2.15416e-07)
(2.6068 0 -2.95001e-07)
(2.6068 0 -4.09668e-07)
(2.6068 -3.79503e-30 -5.60977e-07)
(2.6068 -5.11999e-30 -7.61201e-07)
(2.6068 -1.39619e-29 -1.02646e-06)
(2.60681 1.8906e-29 -1.37241e-06)
(2.60681 9.94436e-29 -1.82645e-06)
(2.60681 6.5863e-29 -2.42654e-06)
(2.60681 0 -3.21416e-06)
(2.60681 0 -4.24979e-06)
(2.60681 0 -5.61362e-06)
(2.60681 0 -7.40892e-06)
(2.60681 2.17975e-27 -9.77159e-06)
(2.60681 8.60454e-27 -1.28817e-05)
(2.60681 7.50018e-27 -1.69759e-05)
(2.60681 0 -2.23651e-05)
(2.60681 -2.663e-26 -2.9459e-05)
(2.60681 -1.04904e-25 -3.87967e-05)
(2.60681 -1.84092e-25 -5.10879e-05)
(2.60681 1.25282e-25 -6.72668e-05)
(2.60681 6.42224e-25 -8.85633e-05)
(2.60681 1.27619e-24 -0.000116596)
(2.60681 1.10678e-24 -0.000153495)
(2.60681 0 -0.000202066)
(2.60681 0 -0.000266001)
(2.60681 -5.21208e-24 -0.000350157)
(2.60681 -2.04781e-23 -0.000460933)
(2.60681 -1.7717e-23 -0.000606749)
(2.60681 4.8021e-23 -0.000798687)
(2.60681 6.17171e-23 -0.00105134)
(2.60681 0 -0.0013839)
(2.60682 1.32507e-21 -0.00182177)
(2.60682 2.83501e-22 -0.00239784)
(2.60682 -2.20806e-21 -0.00315619)
(2.60681 -1.01785e-21 -0.00415474)
(2.60681 -1.30283e-21 -0.00546897)
(2.60681 -3.55042e-21 -0.00719879)
(2.60681 4.83741e-21 -0.00947611)
(2.6068 4.20224e-20 -0.0124733)
(2.60678 5.37581e-20 -0.0164194)
(2.60676 -2.26237e-19 -0.0216134)
(2.60671 2.02216e-21 -0.0284514)
(2.60663 -4.92496e-19 -0.0374536)
(2.60648 -2.06091e-18 -0.0493061)
(2.60622 2.53821e-19 -0.0649116)
(2.60575 -1.80764e-17 -0.085455)
(2.60481 2.01316e-17 -0.112318)
(2.6022 7.46796e-17 -0.146147)
(2.59395 0 -0.189325)
(2.57613 4.42429e-15 -0.251069)
(2.54894 0 -0.335558)
(2.51117 0 -0.446454)
(2.45973 1.61258e-14 -0.59212)
(2.38833 0 -0.785965)
(2.28546 0 -1.05141)
(2.1311 -5.3774e-14 -1.43825)
(1.89833 6.44652e-17 -2.08172)
(1.58286 1.21196e-15 -3.77153)
(2.63568 0 -2.45375e-08)
(2.63568 0 -5.67836e-08)
(2.63569 1.97142e-32 -9.47384e-08)
(2.63569 8.70164e-32 -1.39165e-07)
(2.63569 7.49032e-32 -1.79756e-07)
(2.63569 4.01115e-31 -2.38035e-07)
(2.63569 5.37762e-31 -3.20634e-07)
(2.63569 0 -4.32186e-07)
(2.63569 0 -5.79083e-07)
(2.63569 1.06904e-29 -7.78612e-07)
(2.63569 1.42e-29 -1.04379e-06)
(2.63569 0 -1.39207e-06)
(2.63569 0 -1.84808e-06)
(2.63569 -1.37024e-28 -2.44968e-06)
(2.63569 -1.78924e-28 -3.24114e-06)
(2.63569 0 -4.28416e-06)
(2.63569 6.4185e-28 -5.65751e-06)
(2.63569 -8.69722e-28 -7.46445e-06)
(2.63569 4.91211e-29 -9.84382e-06)
(2.63569 8.89428e-27 -1.29757e-05)
(2.63569 -1.91915e-28 -1.70983e-05)
(2.63569 -1.02116e-26 -2.25255e-05)
(2.63569 0 -2.96697e-05)
(2.63569 0 -3.9074e-05)
(2.63569 0 -5.14536e-05)
(2.63569 0 -6.77497e-05)
(2.63569 -3.39694e-25 -8.92011e-05)
(2.6357 -4.35367e-25 -0.000117439)
(2.6357 0 -0.00015461)
(2.6357 0 -0.00020354)
(2.6357 -4.15999e-24 -0.00026795)
(2.6357 -1.08104e-23 -0.000352737)
(2.6357 -7.01395e-24 -0.000464347)
(2.6357 0 -0.000611267)
(2.6357 0 -0.000804666)
(2.6357 -6.73065e-23 -0.00105925)
(2.6357 -8.54673e-23 -0.00139426)
(2.6357 0 -0.00183556)
(2.6357 0 -0.00241628)
(2.6357 -2.23252e-21 -0.00318085)
(2.6357 2.23252e-21 -0.00418686)
(2.6357 0 -0.00551167)
(2.6357 0 -0.00725534)
(2.63569 1.00762e-20 -0.00955078)
(2.63568 8.41373e-20 -0.0125729)
(2.63567 0 -0.016551)
(2.63564 -4.28628e-19 -0.0217891)
(2.6356 -4.4793e-19 -0.028686)
(2.63551 -1.15159e-18 -0.0377684)
(2.63536 2.08018e-18 -0.0497297)
(2.63508 9.1402e-18 -0.0654812)
(2.63446 -1.82756e-17 -0.0860592)
(2.63237 -1.69857e-17 -0.111647)
(2.62549 -5.63655e-17 -0.144346)
(2.6106 -4.00454e-17 -0.192491)
(2.58844 0 -0.257762)
(2.55874 0 -0.343153)
(2.51983 0 -0.454537)
(2.46812 1.61827e-14 -0.600516)
(2.39719 0 -0.7947)
(2.29572 -2.97297e-14 -1.06091)
(2.14456 0 -1.44954)
(1.91947 0 -2.09482)
(1.63615 -1.24735e-15 -3.73983)
(2.65916 0 -1.69804e-08)
(2.65916 0 -1.12883e-08)
(2.65916 1.56427e-33 8.50678e-09)
(2.65916 -1.80951e-32 -2.7507e-08)