/*--------------------------------*- C++ -*----------------------------------*\
  =========                 |
  \\      /  F ield         | OpenFOAM: The Open Source CFD Toolbox
   \\    /   O peration     | Website:  https://openfoam.org
    \\  /    A nd           | Version:  7
     \\/     M anipulation  |
\*---------------------------------------------------------------------------*/
FoamFile
{
    version     2.0;
    format      ascii;
    class       volVectorField;
    location    "0";
    object      U;
}
// * * * * * * * * * * * * * * * * * * * * * * * * * * * * * * * * * * * * * //

dimensions      [0 1 -1 0 0 0 0];

internalField   nonuniform List<vector> 
14336
(
(4.24829 0 -0.714247)
(4.91938 0 -1.96033)
(5.47149 0 -2.89999)
(5.85637 0 -3.6026)
(6.12145 -3.40908e-24 -4.12132)
(6.30655 -3.72547e-24 -4.50382)
(6.43576 1.58247e-23 -4.78272)
(6.52707 -1.12799e-34 -4.98617)
(6.59077 1.69788e-23 -5.13152)
(6.63609 6.93024e-23 -5.23634)
(6.66754 3.51435e-23 -5.31073)
(6.69006 0 -5.36408)
(6.70571 -1.42977e-22 -5.40151)
(6.71683 1.43683e-22 -5.4282)
(6.7246 2.88359e-22 -5.44695)
(6.73004 0 -5.46031)
(6.73385 1.15823e-21 -5.46961)
(6.73668 1.15963e-21 -5.47621)
(6.73847 0 -5.48082)
(6.73975 0 -5.48408)
(6.74057 0 -5.48631)
(6.74118 -4.64838e-21 -5.48784)
(6.74154 -9.29847e-21 -5.48885)
(6.74169 -4.64976e-21 -5.48947)
(6.74181 0 -5.48973)
(6.74139 0 -5.48973)
(6.74125 0 -5.48947)
(6.74091 0 -5.48894)
(6.74013 0 -5.48812)
(6.73933 0 -5.48694)
(6.73819 -7.43402e-20 -5.48534)
(6.73657 -7.4311e-20 -5.48318)
(6.73451 0 -5.48027)
(6.73169 0 -5.47643)
(6.72829 -2.96603e-19 -5.47136)
(6.7236 -2.96243e-19 -5.46471)
(6.71738 0 -5.4559)
(6.70927 0 -5.44434)
(6.69853 0 -5.42917)
(6.68455 -1.17295e-18 -5.40929)
(6.6661 -1.16729e-18 -5.38317)
(6.64189 0 -5.34899)
(6.6104 -2.30039e-18 -5.30432)
(6.56872 -2.27512e-18 -5.24606)
(6.51472 0 -5.17017)
(6.44401 -8.7982e-18 -5.07179)
(6.35211 -1.71559e-17 -4.94483)
(6.23296 -1.6591e-17 -4.782)
(6.0795 7.93612e-18 -4.57479)
(5.88278 1.49676e-17 -4.31405)
(5.63309 0 -3.99046)
(5.3195 -2.49581e-17 -3.59672)
(4.93184 -6.51535e-17 -3.12973)
(4.46213 -3.69812e-17 -2.59493)
(3.90841 -5.58255e-17 -2.0111)
(3.28089 -8.14033e-17 -1.41495)
(2.60805 -2.39479e-17 -0.862615)
(1.94514 0 -0.420944)
(1.37128 8.11599e-18 -0.145961)
(0.962852 2.943e-17 -0.0485746)
(0.729235 9.0432e-18 -0.08121)
(0.515531 1.33897e-16 -0.230005)
(0.448689 2.13088e-16 -0.511251)
(2.56139 0 1.22331)
(0.00656859 0 -0.101101)
(0.00656856 3.11207e-26 -0.300981)
(0.00656801 2.46517e-25 -0.476834)
(0.00656926 7.74444e-25 -0.624164)
(0.00656771 6.20637e-25 -0.750304)
(0.00656908 1.40999e-24 -0.852285)
(0.0065688 1.54654e-24 -0.934828)
(0.00656894 3.30535e-24 -0.998982)
(0.00656931 1.04031e-23 -1.04805)
(0.00657268 7.17979e-24 -1.08498)
(0.00657085 0 -1.11242)
(0.00657358 0 -1.13268)
(0.00657578 0 -1.14734)
(0.00657913 0 -1.15801)
(0.00658375 6.171e-23 -1.16567)
(0.00658872 6.20034e-23 -1.17121)
(0.00659617 0 -1.17512)
(0.00660806 -2.49437e-22 -1.17793)
(0.00662042 -2.49859e-22 -1.17992)
(0.00663779 -5.00326e-22 -1.18136)
(0.00666025 -5.00753e-22 -1.18237)
(0.00669158 1.00212e-21 -1.1831)
(0.00673223 1.00256e-21 -1.18362)
(0.00678559 0 -1.184)
(0.00685755 0 -1.18425)
(0.00694616 0 -1.18444)
(0.00707002 0 -1.18457)
(0.00723209 0 -1.18467)
(0.0074413 0 -1.18473)
(0.00772027 1.60567e-20 -1.18478)
(0.00808647 -1.84063e-30 -1.18482)
(0.00856707 -3.21156e-20 -1.18486)
(0.00920041 1.60579e-20 -1.18487)
(0.0100321 -8.78257e-30 -1.18487)
(0.01113 3.21162e-20 -1.18488)
(0.0125705 -4.40191e-29 -1.18488)
(0.0144627 -6.42316e-20 -1.18486)
(0.0169493 1.28461e-19 -1.18484)
(0.0202129 1.28458e-19 -1.18481)
(0.0244953 0 -1.18478)
(0.0301061 -2.56887e-19 -1.18468)
(0.0374473 -7.7057e-19 -1.18454)
(0.0470399 -5.1362e-19 -1.18433)
(0.0595322 0 -1.18397)
(0.0757654 0 -1.18334)
(0.0967557 -2.05097e-18 -1.1823)
(0.123756 -2.04799e-18 -1.18058)
(0.158223 2.043e-18 -1.17771)
(0.201797 2.03465e-18 -1.17289)
(0.256145 0 -1.16494)
(0.322817 0 -1.15195)
(0.402406 -7.84872e-18 -1.13111)
(0.494555 -7.62206e-18 -1.09844)
(0.59622 -1.29255e-19 -1.04873)
(0.701157 2.7097e-17 -0.976211)
(0.798645 2.3628e-17 -0.876173)
(0.874765 -1.92661e-17 -0.748657)
(0.915118 -1.67352e-17 -0.602799)
(0.911745 1.26507e-17 -0.460887)
(0.869078 6.35611e-17 -0.354874)
(0.800058 -1.83713e-20 -0.313873)
(0.70694 3.99519e-17 -0.346392)
(0.62016 5.76399e-16 -0.367552)
(0.650742 -9.83271e-17 0.222373)
(0.00610977 1.01156e-28 0.00391328)
(0.0061098 -1.01972e-28 -0.00394485)
(0.0061098 0 -0.0172061)
(0.00610996 0 -0.0430491)
(0.00610994 0 -0.0880516)
(0.00611031 0 -0.13698)
(0.00611025 0 -0.189194)
(0.00611047 0 -0.235872)
(0.0061107 1.83499e-24 -0.277296)
(0.00611081 6.17396e-24 -0.310994)
(0.00611126 4.4717e-24 -0.337872)
(0.00611186 9.49099e-24 -0.35856)
(0.00611251 -1.03413e-35 -0.374253)
(0.0061135 1.02165e-23 -0.385969)
(0.00611484 -4.65534e-35 -0.394527)
(0.00611663 2.12175e-23 -0.400788)
(0.006119 -1.8634e-34 -0.40529)
(0.00612212 -4.32571e-23 -0.408552)
(0.0061263 -8.70036e-23 -0.410863)
(0.00613183 -8.73557e-23 -0.412526)
(0.00613909 0 -0.413701)
(0.00614864 3.51134e-22 -0.414546)
(0.00616128 3.51637e-22 -0.41514)
(0.00617787 7.03999e-22 -0.415568)
(0.00619976 1.40902e-21 -0.41587)
(0.00622852 7.04881e-22 -0.416089)
(0.00626642 -1.41028e-21 -0.41624)
(0.00631631 -4.23196e-21 -0.416351)
(0.00638198 6.21915e-31 -0.416429)
(0.00646838 2.82223e-21 -0.416488)
(0.00658211 5.64496e-21 -0.416524)
(0.00673181 5.64533e-21 -0.416552)
(0.00692883 0 -0.416571)
(0.0071881 -1.12916e-20 -0.416586)
(0.00752938 -3.38756e-20 -0.416596)
(0.00797851 -2.25842e-20 -0.416605)
(0.00856961 4.51694e-20 -0.416614)
(0.00934749 9.03407e-20 -0.416623)
(0.0103714 4.5171e-20 -0.416628)
(0.0117187 9.03435e-20 -0.416636)
(0.013492 -1.40236e-27 -0.416642)
(0.0158254 -9.03464e-20 -0.416649)
(0.0188964 0 -0.416644)
(0.0229368 -3.61371e-19 -0.416632)
(0.0282532 3.91539e-26 -0.416609)
(0.0352447 3.61307e-19 -0.416559)
(0.0444382 -7.22409e-19 -0.41644)
(0.0565153 -7.22033e-19 -0.416223)
(0.0723661 0 -0.415784)
(0.0931712 0 -0.415022)
(0.120174 0 -0.413626)
(0.155408 0 -0.411232)
(0.200712 0 -0.407126)
(0.258246 0 -0.400347)
(0.329841 1.05281e-17 -0.389575)
(0.416058 -5.71978e-22 -0.373273)
(0.515067 -8.84573e-18 -0.350794)
(0.620828 -4.30697e-18 -0.324098)
(0.722032 2.00367e-17 -0.301222)
(0.802058 0 -0.298759)
(0.839384 0 -0.339495)
(0.803137 0 -0.436811)
(0.636112 4.2202e-17 -0.538313)
(0.142576 -1.4389e-16 -0.323588)
(0.00739365 0 -0.0452021)
(0.00739366 0 -0.11242)
(0.00739372 0 -0.159507)
(0.00739359 0 -0.18088)
(0.00739356 0 -0.17203)
(0.00739352 0 -0.151131)
(0.00739357 -4.00638e-25 -0.121085)
(0.00739364 -6.07365e-25 -0.0917824)
(0.00739388 -2.1218e-25 -0.0641275)
(0.00739407 -5.44826e-25 -0.0411659)
(0.00739444 5.80214e-36 -0.0226772)
(0.00739504 1.1203e-25 -0.00846475)
(0.00739567 0 0.00223858)
(0.00739662 0 0.0101349)
(0.00739784 8.35315e-25 0.0157787)
(0.00739946 1.04921e-24 0.019819)
(0.0074016 0 0.0226406)
(0.00740441 5.21451e-24 0.0246248)
(0.00740811 5.49993e-24 0.0259727)
(0.00741303 0 0.0269039)
(0.00741947 0 0.0275305)
(0.00742797 2.36817e-23 0.0279584)
(0.00743919 2.39213e-23 0.0282412)
(0.00745394 0 0.028431)
(0.00747338 0 0.0285558)
(0.00749895 0 0.0286379)
(0.00753263 0 0.0286935)
(0.00757695 0 0.0287288)
(0.0076353 0 0.0287526)
(0.00771209 -3.89855e-22 0.0287662)
(0.00781317 -3.90054e-22 0.0287809)
(0.00794619 0 0.02879)
(0.00812128 -7.80586e-22 0.0287985)
(0.0083517 -7.80721e-22 0.0288035)
(0.00865498 0 0.0288096)
(0.0090541 0 0.0288135)
(0.00957937 0 0.0288165)
(0.0102707 0 0.0288185)
(0.0111804 0 0.0288231)
(0.0123776 0 0.0288263)
(0.0139532 0 0.0288286)
(0.0160264 0 0.0288293)
(0.0187546 0 0.0288362)
(0.0223441 0 0.0288384)
(0.0270667 0 0.0288319)
(0.0332786 -4.99734e-20 0.0288082)
(0.0414487 -3.41034e-25 0.0287713)
(0.0521892 4.97615e-20 0.0286865)
(0.0663031 -9.90324e-20 0.0285463)
(0.0847927 -9.80481e-20 0.0282632)
(0.109128 0 0.0277563)
(0.140934 0 0.0268378)
(0.182357 0 0.025217)
(0.236003 3.10056e-19 0.0223769)
(0.304828 -2.38354e-20 0.0173796)
(0.391584 -4.43174e-19 0.00861626)
(0.497863 -1.9601e-19 -0.00692327)
(0.621997 2.38058e-18 -0.0345272)
(0.755849 5.83754e-18 -0.0833849)
(0.880708 1.87379e-17 -0.167818)
(0.963807 3.4155e-17 -0.306593)
(0.952446 -4.22203e-16 -0.515953)
(0.74169 0 -0.779956)
(-0.0106818 0 -0.868477)
(0.016542 0 -0.00232956)
(0.0165419 2.2708e-27 0.0219618)
(0.016542 2.23053e-26 0.0719078)
(0.0165419 2.63435e-26 0.127389)
(0.0165421 0 0.187048)
(0.0165421 -3.9726e-25 0.240129)
(0.0165424 -4.74363e-25 0.286735)
(0.0165427 1.07286e-24 0.324253)
(0.0165431 -1.17026e-24 0.353691)
(0.0165436 -2.48853e-24 0.376056)
(0.0165442 -5.1978e-24 0.392735)
(0.0165449 -5.36028e-24 0.405012)
(0.0165458 -1.09533e-23 0.413803)
(0.0165471 -1.11207e-23 0.420129)
(0.0165485 0 0.424586)
(0.0165505 0 0.427756)
(0.0165531 0 0.429951)
(0.0165564 0 0.431498)
(0.0165607 0 0.432565)
(0.0165665 0 0.433316)
(0.016574 0 0.43383)
(0.0165838 0 0.43419)
(0.0165968 0 0.434438)
(0.0166138 -7.36261e-22 0.434612)
(0.0166362 -2.47979e-31 0.434731)
(0.0166656 7.36605e-22 0.434815)
(0.0167044 0 0.434872)
(0.0167553 -2.94708e-21 0.434912)
(0.0168224 -2.94725e-21 0.434937)
(0.0169107 -5.89471e-21 0.434953)
(0.0170269 -1.35362e-29 0.434961)
(0.0171797 1.17897e-20 0.434964)
(0.017381 5.89481e-21 0.43496)
(0.0176458 0 0.434951)
(0.0179943 0 0.434936)
(0.018453 -2.35768e-20 0.434916)
(0.0190566 -7.07255e-20 0.434885)
(0.0198512 -4.7146e-20 0.434845)
(0.020897 0 0.434791)
(0.0222735 9.42649e-20 0.43472)
(0.0240853 9.42444e-20 0.434626)
(0.0264701 -1.88434e-19 0.434499)
(0.0296095 -3.76719e-19 0.434328)
(0.0337419 -5.64775e-19 0.434095)
(0.0391823 -3.76244e-19 0.43378)
(0.0463442 7.5173e-19 0.433344)
(0.0557728 7.0955e-25 0.432742)
(0.0681834 -7.49196e-19 0.431884)
(0.084517 0 0.430664)
(0.106042 1.15154e-20 0.428862)
(0.13423 2.95711e-18 0.426176)
(0.171256 3.71938e-20 0.422045)
(0.219652 -8.6022e-18 0.415558)
(0.28255 -5.62262e-18 0.4052)
(0.363451 0 0.388404)
(0.465767 -1.08239e-17 0.361056)
(0.591528 -8.78226e-18 0.316669)
(0.73893 1.36144e-17 0.245892)
(0.898531 5.74147e-17 0.136339)
(1.04887 0 -0.0265086)
(1.15325 0 -0.258472)
(1.15392 1.52764e-15 -0.578036)
(0.931747 6.40656e-15 -1.00989)
(0.0571887 0 -1.51806)
(0.0179087 2.14567e-27 0.166013)
(0.0179085 5.53622e-27 0.428344)
(0.017908 0 0.596667)
(0.0179085 0 0.704376)
(0.0179087 6.32131e-25 0.764199)
(0.0179089 6.60417e-25 0.798395)
(0.0179091 2.69454e-24 0.814376)
(0.0179094 2.71949e-24 0.821916)
(0.0179098 -5.45328e-24 0.824076)
(0.0179102 5.45407e-24 0.824196)
(0.0179108 1.0895e-23 0.823207)
(0.0179116 0 0.822057)
(0.0179126 -2.1731e-23 0.820974)
(0.017914 -6.51239e-23 0.820103)
(0.0179158 -4.58732e-34 0.819446)
(0.0179182 4.33561e-23 0.818974)
(0.0179215 0 0.818662)
(0.0179257 -1.73315e-22 0.818456)
(0.0179315 -1.73289e-22 0.818335)
(0.0179389 0 0.818263)
(0.0179487 -3.46534e-22 0.818231)
(0.0179617 -3.46529e-22 0.818218)
(0.0179787 0 0.81822)
(0.0180012 0 0.818229)
(0.0180308 1.38615e-21 0.818241)
(0.0180697 1.38617e-21 0.818253)
(0.018121 0 0.818267)
(0.0181885 0 0.81828)
(0.0182772 0 0.818292)
(0.0183941 1.10901e-20 0.818304)
(0.018548 2.21805e-20 0.818317)
(0.0187505 1.10904e-20 0.81833)
(0.0190171 0 0.818345)
(0.0193678 0 0.818362)
(0.0198294 0 0.818383)
(0.0204371 4.4366e-20 0.818408)
(0.0212367 4.43678e-20 0.818441)
(0.022289 0 0.818481)
(0.0236738 1.77491e-19 0.818532)
(0.0254961 1.77504e-19 0.818595)
(0.0278941 -1.77522e-19 0.818674)
(0.0310493 -1.77542e-19 0.81877)
(0.0352005 0 0.818881)
(0.0406615 -7.10372e-19 0.819003)
(0.0478443 -1.42096e-18 0.819127)
(0.0572893 -7.10557e-19 0.819218)
(0.0698143 -1.42112e-18 0.819221)
(0.0860166 -1.42077e-18 0.819022)
(0.107432 0 0.81843)
(0.135477 -2.82001e-18 0.817071)
(0.172302 -2.84391e-18 0.814326)
(0.220236 4.77959e-20 0.809123)
(0.282535 -1.10355e-17 0.799679)
(0.362839 -1.0551e-17 0.783072)
(0.465007 2.09396e-17 0.754651)
(0.592209 3.71926e-17 0.707383)
(0.745205 -1.74978e-17 0.631303)
(0.919153 -4.12391e-17 0.513837)
(1.10018 6.10961e-17 0.341654)
(1.2632 0 0.103286)
(1.37184 -1.11736e-15 -0.210695)
(1.37236 2.7057e-15 -0.616302)
(1.15454 7.95379e-15 -1.1779)
(0.292842 6.32989e-15 -2.1278)
(0.0245946 0 0.115357)
(0.0245941 -3.52677e-26 0.341088)
(0.0245941 -1.67175e-25 0.538939)
(0.024594 -4.35703e-25 0.70231)
(0.0245938 3.46799e-25 0.838509)
(0.0245942 7.82849e-25 0.946406)
(0.0245944 0 1.03146)
(0.0245949 -3.62737e-24 1.09631)
(0.0245953 -1.13624e-23 1.1447)
(0.0245961 -7.81167e-24 1.18047)
(0.0245969 0 1.20645)
(0.0245981 0 1.22532)
(0.0245996 3.27874e-23 1.23867)
(0.0246015 -3.30403e-23 1.24823)
(0.0246041 -1.32872e-22 1.25494)
(0.0246074 -6.66883e-23 1.25971)
(0.0246119 0 1.26302)
(0.0246175 0 1.26536)
(0.0246252 0 1.26698)
(0.0246352 0 1.26814)
(0.0246484 -5.37413e-22 1.26893)
(0.0246658 -5.37651e-22 1.26949)
(0.0246886 0 1.26989)
(0.0247187 0 1.27016)
(0.0247582 0 1.27035)
(0.0248104 0 1.27049)
(0.0248787 0 1.27058)
(0.0249689 -8.61023e-21 1.27065)
(0.0250874 -8.61051e-21 1.27069)
(0.0252435 0 1.27071)
(0.0254489 0 1.27072)
(0.0257193 0 1.27072)
(0.0260751 0 1.27071)
(0.0265431 3.4442e-20 1.27069)
(0.0271593 3.44411e-20 1.27065)
(0.0279701 6.88794e-20 1.2706)
(0.0290372 6.88756e-20 1.27053)
(0.030441 1.37741e-19 1.27044)
(0.0322883 -1.37727e-19 1.27031)
(0.0347189 -2.75417e-19 1.27014)
(0.0379164 0 1.26991)
(0.0421222 0 1.26959)
(0.0476538 5.50414e-19 1.26917)
(0.054927 1.65048e-18 1.26859)
(0.064487 1.09962e-18 1.26778)
(0.077047 -2.19727e-18 1.26664)
(0.0934472 -2.66834e-24 1.26502)
(0.115173 2.19038e-18 1.26268)
(0.143583 0 1.25923)
(0.180595 0 1.25404)
(0.228957 -2.4864e-20 1.24609)
(0.291755 -8.62334e-18 1.23371)
(0.372795 -8.42413e-18 1.21415)
(0.476086 4.13343e-19 1.18298)
(0.605472 0 1.13329)
(0.762709 -2.64868e-18 1.05508)
(0.945044 6.49878e-17 0.935423)
(1.14198 -2.1356e-17 0.760586)
(1.33389 0 0.520134)
(1.49381 -1.37237e-15 0.210251)
(1.58834 -6.98668e-15 -0.168759)
(1.57081 -6.50565e-16 -0.634587)
(1.35603 -3.60461e-14 -1.28728)
(0.586801 2.07723e-14 -2.58566)
(0.0600866 0 0.0758185)
(0.0600861 0 0.27678)
(0.0600863 -1.0385e-25 0.502186)
(0.0600856 1.48082e-25 0.716078)
(0.0600859 3.82468e-25 0.92475)
(0.060086 0 1.1032)
(0.060087 0 1.25358)
(0.0600879 0 1.37288)
(0.060089 -9.70345e-24 1.46634)
(0.0600904 1.01733e-23 1.53734)
(0.0600919 2.10442e-23 1.59005)
(0.0600939 0 1.62892)
(0.060096 -4.38629e-23 1.6571)
(0.0600989 -4.44041e-23 1.67754)
(0.0601024 0 1.69203)
(0.0601068 0 1.70243)
(0.0601125 0 1.70975)
(0.0601199 3.63162e-22 1.71498)
(0.0601296 3.63935e-22 1.71864)
(0.060142 0 1.72123)
(0.0601588 0 1.72305)
(0.0601802 0 1.72435)
(0.0602087 0 1.72525)
(0.0602459 0 1.72589)
(0.0602948 0 1.72634)
(0.0603594 0 1.72666)
(0.0604444 0 1.72688)
(0.0605561 1.17028e-20 1.72703)
(0.0607027 1.17035e-20 1.72713)
(0.060896 2.34079e-20 1.7272)
(0.0611505 2.34084e-20 1.72723)
(0.061485 -2.34085e-20 1.72725)
(0.0619255 2.34084e-20 1.72724)
(0.0625054 9.08778e-28 1.72721)
(0.0632679 -4.68145e-20 1.72715)
(0.0642725 0 1.72707)
(0.0655939 0 1.72696)
(0.067334 -1.8722e-19 1.7268)
(0.069624 -1.87198e-19 1.7266)
(0.0726386 3.74334e-19 1.72631)
(0.0766071 3.74252e-19 1.72594)
(0.0818315 0 1.72543)
(0.0887102 -7.47983e-19 1.72473)
(0.0977668 -7.47572e-19 1.72379)
(0.10971 1.49363e-18 1.72248)
(0.125391 1.49242e-18 1.72065)
(0.146081 -9.91975e-22 1.71806)
(0.173271 0 1.71432)
(0.208978 0 1.70882)
(0.255957 0 1.70056)
(0.317305 1.17115e-17 1.68791)
(0.39712 1.14882e-17 1.66818)
(0.499795 0 1.63699)
(0.629695 -2.31185e-17 1.58749)
(0.78939 -5.73255e-17 1.50961)
(0.97732 -1.20876e-20 1.39014)
(1.18447 5.01308e-17 1.21481)
(1.39311 -1.3119e-16 0.972945)
(1.57937 -3.64746e-17 0.662642)
(1.71668 -1.52747e-15 0.29214)
(1.77555 -1.87827e-14 -0.135601)
(1.72588 0 -0.650326)
(1.51102 -3.9004e-14 -1.36371)
(0.853017 -2.91543e-14 -2.89265)
(0.0798082 0 0.464411)
(0.079807 0 1.18876)
(0.0798067 0 1.64085)
(0.0798076 -7.95368e-25 1.92308)
(0.0798085 -8.56865e-25 2.07177)
(0.0798097 0 2.15239)
(0.0798105 0 2.18615)
(0.0798115 0 2.19956)
(0.0798125 0 2.20042)
(0.0798137 0 2.19742)
(0.0798151 0 2.19295)
(0.0798169 0 2.18888)
(0.0798193 0 2.18556)
(0.0798224 0 2.18313)
(0.0798266 0 2.18155)
(0.079832 2.30874e-22 2.18055)
(0.0798391 2.30818e-22 2.18001)
(0.0798485 0 2.17976)
(0.079861 0 2.17972)
(0.0798773 0 2.17978)
(0.0798988 -9.23225e-22 2.1799)
(0.079927 -9.23287e-22 2.18005)
(0.0799643 -1.8467e-21 2.1802)
(0.0800133 -1.84682e-21 2.18035)
(0.0800779 3.69387e-21 2.18048)
(0.0801628 3.69406e-21 2.18059)
(0.0802747 0 2.18068)
(0.0804219 0 2.18076)
(0.0806157 -1.47779e-20 2.18083)
(0.0808707 -1.47782e-20 2.18088)
(0.0812065 0 2.18093)
(0.0816484 -2.95576e-20 2.18096)
(0.0822301 -2.9558e-20 2.18099)
(0.0829959 5.91166e-20 2.18102)
(0.0840038 5.91171e-20 2.18104)
(0.0853307 0 2.18105)
(0.0870776 0 2.18106)
(0.0893776 0 2.18106)
(0.092406 4.72941e-19 2.18106)
(0.096394 1.00445e-25 2.18103)
(0.101647 -4.72925e-19 2.18098)
(0.108565 9.45806e-19 2.18088)
(0.117719 9.45527e-19 2.1807)
(0.129693 0 2.18037)
(0.145529 -9.88438e-22 2.17978)
(0.166402 0 2.17874)
(0.193864 -6.58826e-22 2.17692)
(0.230078 0 2.17374)
(0.277627 -1.50867e-20 2.16821)
(0.339917 0 2.15865)
(0.421044 -1.48636e-17 2.14228)
(0.525636 -1.46707e-17 2.11454)
(0.658282 0 2.06833)
(0.822097 1.43273e-18 1.99323)
(1.01621 -8.92508e-21 1.87556)
(1.23255 0 1.70037)
(1.45398 -1.6159e-16 1.45622)
(1.65696 -6.30248e-17 1.14166)
(1.81604 0 0.769018)
(1.9064 -1.37205e-14 0.350962)
(1.91625 -1.33474e-14 -0.121688)
(1.83568 -8.57968e-18 -0.674533)
(1.62076 -2.35746e-18 -1.42111)
(1.06302 -3.82657e-14 -3.09411)
(0.0588888 0 0.39984)
(0.0588872 -1.10455e-25 1.06825)
(0.058886 -4.7683e-25 1.5372)
(0.0588858 -1.16088e-24 1.87122)
(0.0588868 -2.60953e-24 2.10316)
(0.0588871 -1.87635e-24 2.26837)
(0.0588873 -7.89047e-24 2.38475)
(0.0588883 -1.63357e-23 2.46859)
(0.0588895 8.36604e-24 2.52848)
(0.058891 -1.70207e-23 2.57209)
(0.0588924 -6.89194e-23 2.6037)
(0.0588951 3.47672e-23 2.62694)
(0.0588986 6.99842e-23 2.64393)
(0.058903 0 2.6565)
(0.0589091 -1.41124e-22 2.66577)
(0.0589172 -1.41489e-22 2.67265)
(0.0589279 -2.83518e-22 2.67775)
(0.0589421 2.8392e-22 2.68155)
(0.058961 1.32464e-31 2.68437)
(0.0589859 -5.68885e-22 2.68648)
(0.0590189 -1.13843e-21 2.68805)
(0.0590622 -1.13893e-21 2.68922)
(0.0591194 0 2.6901)
(0.0591948 -4.55832e-21 2.69076)
(0.0592945 -4.55916e-21 2.69125)
(0.0594247 0 2.69162)
(0.0595974 0 2.6919)
(0.0598241 0 2.69212)
(0.0601228 0 2.69229)
(0.0605159 0 2.69243)
(0.0610333 0 2.69255)
(0.0617141 0 2.69265)
(0.06261 0 2.69276)
(0.0637891 -7.29903e-20 2.69287)
(0.0653401 -7.29936e-20 2.69299)
(0.0673807 0 2.69313)
(0.0700644 0 2.69331)
(0.0735936 0 2.69352)
(0.0782329 5.84119e-19 2.69378)
(0.0843293 1.16837e-18 2.69408)
(0.0923363 5.84262e-19 2.69444)
(0.102846 0 2.69483)
(0.116646 -8.607e-28 2.6952)
(0.134689 -2.33793e-18 2.69546)
(0.158326 -4.67689e-18 2.69544)
(0.189204 -7.01196e-18 2.69478)
(0.229432 -4.67052e-18 2.69286)
(0.281682 -4.67155e-18 2.68864)
(0.349333 -4.66843e-18 2.68033)
(0.436376 9.49875e-20 2.66502)
(0.547387 0 2.63805)
(0.686981 0 2.59224)
(0.858518 3.34188e-17 2.51712)
(1.06165 7.02222e-17 2.3987)
(1.28891 -3.97366e-17 2.22125)
(1.5233 -5.46215e-17 1.97213)
(1.74052 1.13197e-16 1.64914)
(1.91352 1.25692e-16 1.26697)
(2.01613 7.61775e-15 0.844179)
(2.04503 -2.95331e-14 0.378448)
(2.01248 1.77567e-16 -0.13071)
(1.90991 0 -0.703181)
(1.69651 0 -1.46592)
(1.22034 3.71039e-16 -3.22447)
(0.119012 -4.22788e-27 0.327116)
(0.119011 -1.22653e-26 0.948984)
(0.11901 0 1.47456)
(0.119011 0 1.90082)
(0.119011 0 2.25008)
(0.119013 0 2.52515)
(0.119015 0 2.74117)
(0.119018 0 2.90631)
(0.119021 0 3.03061)
(0.119025 0 3.12337)
(0.119029 0 3.19175)
(0.119034 0 3.24209)
(0.119039 -8.67814e-23 3.27851)
(0.119046 -8.7484e-23 3.30505)
(0.119055 0 3.32416)
(0.119066 0 3.33805)
(0.11908 0 3.34798)
(0.119098 7.10486e-22 3.35517)
(0.119123 7.11579e-22 3.36033)
(0.119153 0 3.36408)
(0.119193 -1.42588e-21 3.36676)
(0.119245 -1.4267e-21 3.3687)
(0.119314 -2.85458e-21 3.37009)
(0.119404 2.85543e-21 3.3711)
(0.119524 5.71207e-21 3.37181)
(0.119677 0 3.37231)
(0.119882 -1.1427e-20 3.37265)
(0.120151 1.14277e-20 3.37286)
(0.120504 2.28562e-20 3.37297)
(0.120969 0 3.373)
(0.121581 0 3.37294)
(0.122386 0 3.3728)
(0.123445 -9.14137e-20 3.37257)
(0.12484 -6.09864e-27 3.37223)
(0.126676 9.13915e-20 3.37175)
(0.129094 -1.82748e-19 3.37111)
(0.132275 -1.82701e-19 3.37025)
(0.136467 0 3.36911)
(0.141989 0 3.36761)
(0.149264 0 3.36563)
(0.158851 -7.29239e-19 3.36303)
(0.17149 -7.285e-19 3.35962)
(0.188152 3.20272e-22 3.35514)
(0.210162 3.57188e-22 3.34926)
(0.239113 -8.11906e-22 3.34152)
(0.277326 0 3.33126)
(0.327593 0 3.31751)
(0.393583 -1.06985e-20 3.29878)
(0.479707 0 3.27266)
(0.591103 1.28617e-19 3.23514)
(0.732987 -2.20577e-17 3.17973)
(0.90933 -2.14776e-17 3.09633)
(1.12028 3.5329e-17 2.97072)
(1.35855 3.86214e-17 2.78597)
(1.60662 -4.49538e-17 2.5274)
(1.83836 1.2047e-16 2.19099)
(2.02326 -1.70852e-15 1.79269)
(2.12949 -7.74456e-16 1.35555)
(2.15812 2.3863e-14 0.878428)
(2.13694 1.54169e-14 0.373312)
(2.07567 2.86992e-14 -0.151487)
(1.96007 -5.17528e-14 -0.731569)
(1.74996 1.93375e-16 -1.5031)
(1.33826 3.81417e-16 -3.30763)
(0.150589 0 0.613314)
(0.150585 0 1.62431)
(0.150583 0 2.31791)
(0.150584 1.15851e-24 2.8011)
(0.150585 1.29215e-24 3.12423)
(0.150587 0 3.3476)
(0.150589 1.1576e-23 3.49863)
(0.150592 1.19256e-23 3.6043)
(0.150595 0 3.67723)
(0.150597 0 3.72915)
(0.150602 0 3.76588)
(0.150607 1.00387e-22 3.79251)
(0.150613 1.00896e-22 3.81173)
(0.150622 0 3.82585)
(0.150633 0 3.83622)
(0.150646 0 3.84391)
(0.150665 4.07594e-22 3.84962)
(0.150689 4.08046e-22 3.85388)
(0.150723 -8.16766e-22 3.85707)
(0.150765 -8.17272e-22 3.85946)
(0.150821 0 3.86125)
(0.150895 0 3.8626)
(0.150993 0 3.86362)
(0.151121 0 3.8644)
(0.15129 0 3.86499)
(0.151512 1.30966e-20 3.86544)
(0.151806 1.61378e-28 3.8658)
(0.152191 -1.30989e-20 3.8661)
(0.1527 0 3.86635)
(0.153368 0 3.86658)
(0.154249 0 3.86681)
(0.155407 0 3.86705)
(0.156932 0 3.86732)
(0.158939 0 3.86764)
(0.161581 0 3.86803)
(0.165058 0 3.86851)
(0.16963 0 3.86911)
(0.175648 0 3.86986)
(0.183561 0 3.87079)
(0.193969 0 3.87191)
(0.20765 0 3.87322)
(0.225703 1.68055e-18 3.87466)
(0.249206 1.68097e-18 3.87609)
(0.280234 4.76078e-22 3.8772)
(0.32089 -2.18666e-21 3.87737)
(0.37394 0 3.8755)
(0.443235 1.20796e-20 3.86967)
(0.533106 0 3.85669)
(0.64883 0 3.83146)
(0.795857 0 3.78609)
(0.978672 2.65806e-17 3.70919)
(1.19819 2.48635e-17 3.5854)
(1.4479 -5.05242e-18 3.39695)
(1.71024 2.39812e-17 3.12832)
(1.95742 -1.65721e-16 2.77477)
(2.15441 0 2.35443)
(2.26004 -2.09871e-15 1.89504)
(2.27775 0 1.39321)
(2.2495 1.68132e-14 0.871093)
(2.19583 3.1596e-14 0.352462)
(2.11753 2.92575e-14 -0.175012)
(1.99543 -5.27398e-14 -0.758209)
(1.78966 -9.86631e-17 -1.53443)
(1.42915 -1.93542e-16 -3.35322)
(0.169404 0 0.716565)
(0.169399 2.01323e-25 1.94708)
(0.169396 2.97793e-25 2.88007)
(0.169398 -1.46699e-24 3.54696)
(0.1694 -1.64498e-24 3.97731)
(0.169406 0 4.25867)
(0.169409 0 4.42578)
(0.169413 -1.4987e-23 4.52953)
(0.169417 -1.51817e-23 4.58838)
(0.169421 6.11989e-23 4.62406)
(0.169427 1.22936e-22 4.64438)
(0.169434 1.84903e-22 4.65695)
(0.169442 2.46937e-22 4.66451)
(0.169454 1.23601e-22 4.66952)
(0.169469 0 4.67294)
(0.169489 0 4.67544)
(0.169516 -4.95232e-22 4.67733)
(0.169551 4.95387e-22 4.6788)
(0.169598 1.39359e-30 4.67997)
(0.169658 9.91219e-22 4.6809)
(0.169738 1.98275e-21 4.68164)
(0.169842 0 4.68223)
(0.169981 0 4.68269)
(0.170162 7.93338e-21 4.68304)
(0.170401 7.93382e-21 4.6833)
(0.170715 1.58683e-20 4.68348)
(0.171129 1.58686e-20 4.6836)
(0.171673 0 4.68365)
(0.17239 0 4.68363)
(0.173332 0 4.68355)
(0.174572 0 4.6834)
(0.176204 0 4.68316)
(0.178353 0 4.68282)
(0.181181 0 4.68234)
(0.184901 0 4.6817)
(0.1898 2.53749e-19 4.68084)
(0.196246 7.6106e-19 4.6797)
(0.204931 8.92109e-23 4.67817)
(0.215896 -1.52096e-18 4.67614)
(0.230588 -2.02677e-18 4.67344)
(0.249913 -1.0126e-18 4.66982)
(0.275324 2.34606e-22 4.66495)
(0.30875 0 4.65834)
(0.352524 -4.0325e-18 4.64927)
(0.409797 -4.02152e-18 4.63663)
(0.484586 1.32231e-20 4.61869)
(0.581443 7.982e-18 4.59266)
(0.705911 7.89895e-18 4.55402)
(0.863499 -1.889e-19 4.49559)
(1.05874 0 4.4064)
(1.29257 -2.84814e-17 4.27089)
(1.55852 -2.82104e-17 4.06993)
(1.83874 1.29245e-17 3.78536)
(2.10399 -4.44879e-18 3.40957)
(2.31464 -2.12339e-16 2.96137)
(2.41665 5.00434e-15 2.4728)
(2.41639 0 1.93412)
(2.37071 4.55633e-17 1.37932)
(2.30699 1.73292e-14 0.845601)
(2.23435 -2.67361e-18 0.328192)
(2.14685 -3.17497e-17 -0.197512)
(2.02199 -5.35607e-14 -0.781269)
(1.82113 9.81707e-17 -1.55967)
(1.50192 -6.42681e-14 -3.36365)
(0.217719 0 0.469933)
(0.217712 0 1.35081)
(0.21771 0 2.0451)
(0.217705 -1.08741e-24 2.62919)
(0.217704 -1.31105e-24 3.16993)
(0.217701 0 3.63187)
(0.217704 0 4.03165)
(0.217708 0 4.35583)
(0.217712 3.05604e-23 4.61816)
(0.217721 3.19075e-23 4.82173)
(0.21773 6.58697e-23 4.97697)
(0.217742 -6.7412e-23 5.09351)
(0.217756 -2.74216e-22 5.17978)
(0.217775 -1.38789e-22 5.24331)
(0.217799 0 5.28911)
(0.217831 0 5.32237)
(0.217872 0 5.34613)
(0.217926 0 5.36328)
(0.217996 -1.13829e-21 5.3754)
(0.21809 -3.42039e-21 5.38411)
(0.218212 -2.28287e-21 5.39027)
(0.218373 0 5.3947)
(0.218586 4.57214e-21 5.39783)
(0.218866 1.37221e-20 5.40008)
(0.219235 1.83016e-20 5.40168)
(0.219719 -9.15278e-21 5.40285)
(0.220357 -3.66168e-20 5.40368)
(0.221197 -5.49314e-20 5.4043)
(0.222302 -3.66241e-20 5.40476)
(0.223756 0 5.40511)
(0.22567 0 5.4054)
(0.228186 7.326e-20 5.40564)
(0.231495 2.19789e-19 5.40586)
(0.235845 1.46532e-19 5.40607)
(0.24156 -2.93074e-19 5.40628)
(0.249065 -2.93086e-19 5.40648)
(0.258913 0 5.40668)
(0.271638 -5.86087e-19 5.40681)
(0.28873 -5.86204e-19 5.4068)
(0.311003 -2.66228e-22 5.40651)
(0.339677 1.17214e-18 5.40563)
(0.377257 1.17172e-18 5.4037)
(0.426055 2.34175e-18 5.39986)
(0.489027 -2.3386e-18 5.39275)
(0.570299 -9.32859e-18 5.38015)
(0.674152 4.66545e-18 5.35851)
(0.806221 1.84187e-17 5.32242)
(0.972064 7.6017e-22 5.26371)
(1.17672 -9.22306e-18 5.17056)
(1.42204 -1.86735e-17 5.02682)
(1.70257 -1.66786e-17 4.8127)
(2.00068 -1.41023e-17 4.50881)
(2.28548 -4.0492e-17 4.10569)
(2.51157 2.15677e-17 3.6237)
(2.60674 0 3.09934)
(2.5822 5.30588e-15 2.51127)
(2.51264 0 1.90963)
(2.42863 0 1.34596)
(2.34441 1.75276e-14 0.817743)
(2.26134 0 0.305989)
(2.16894 0 -0.21607)
(2.04335 -5.40254e-14 -0.799058)
(1.84781 5.04353e-17 -1.57841)
(1.56485 1.08435e-15 -3.35887)
(0.482945 0 0.614184)
(0.48294 0 1.79655)
(0.482942 -5.81377e-25 2.81136)
(0.482945 -2.25924e-24 3.64167)
(0.482955 -1.79023e-24 4.32851)
(0.482966 -8.05984e-24 4.87187)
(0.48298 -8.76878e-24 5.3004)
(0.482995 0 5.62841)
(0.483011 0 5.87526)
(0.483031 -8.0194e-23 6.05929)
(0.483049 -8.19856e-23 6.19465)
(0.483071 0 6.29406)
(0.483096 0 6.36567)
(0.483123 3.3975e-22 6.41769)
(0.483155 3.41722e-22 6.45495)
(0.483195 0 6.4819)
(0.483241 -6.88326e-22 6.50106)
(0.483307 6.89789e-22 6.51487)
(0.483379 9.0087e-30 6.5247)
(0.483477 -4.14947e-21 6.53177)
(0.483605 -3.52134e-29 6.53677)
(0.483764 2.76994e-21 6.54034)
(0.483978 0 6.54282)
(0.484253 0 6.54453)
(0.484617 0 6.54564)
(0.485085 0 6.54628)
(0.485699 2.21805e-20 6.54653)
(0.486516 2.21802e-20 6.54645)
(0.487583 0 6.54601)
(0.488984 0 6.54523)
(0.490831 8.8688e-20 6.54403)
(0.493261 1.7733e-19 6.54234)
(0.496463 8.86338e-20 6.54003)
(0.500684 0 6.53695)
(0.506249 0 6.53288)
(0.513607 3.53856e-19 6.52753)
(0.523475 3.53477e-19 6.52053)
(0.536178 0 6.51142)
(0.553211 0 6.49963)
(0.575654 -4.90954e-22 6.48442)
(0.605905 5.15759e-22 6.46491)
(0.645747 0 6.43999)
(0.69893 0 6.40829)
(0.769651 -5.52283e-18 6.36799)
(0.863264 -5.45453e-18 6.31655)
(0.98658 0 6.25003)
(1.14664 -1.88382e-19 6.16208)
(1.35015 -2.12478e-17 6.04232)
(1.60014 -7.09485e-19 5.87483)
(1.89167 2.12149e-17 5.63808)
(2.20647 7.80009e-18 5.30894)
(2.51133 -1.76633e-17 4.87331)
(2.75403 2.29619e-16 4.352)
(2.83749 3.71482e-16 3.7856)
(2.78227 1.3879e-16 3.13423)
(2.68369 0 2.47165)
(2.57271 0 1.86585)
(2.46638 0 1.31324)
(2.37068 1.7671e-14 0.794684)
(2.28173 0 0.289524)
(2.18682 -3.01302e-14 -0.228996)
(2.06173 0 -0.811329)
(1.87189 0 -1.59159)
(1.62003 -1.11443e-15 -3.32566)
(0.563997 0 1.0985)
(0.563978 0 2.91818)
(0.563963 8.64433e-25 4.18014)
(0.563967 3.14129e-24 5.06345)
(0.563965 2.33919e-24 5.65582)
(0.563971 -1.00326e-23 6.06436)
(0.563975 1.04862e-23 6.33853)
(0.563982 2.16001e-23 6.52824)
(0.563985 0 6.65647)
(0.563998 0 6.74594)
(0.564007 0 6.80743)
(0.564022 -1.81341e-22 6.85085)
(0.564043 -2.60784e-31 6.88109)
(0.564068 1.82712e-22 6.90268)
(0.564102 0 6.91795)
(0.564151 7.33634e-22 6.92897)
(0.564215 1.46894e-21 6.93685)
(0.564297 2.20523e-21 6.94259)
(0.56441 2.94207e-21 6.94676)
(0.564562 4.41505e-21 6.94983)
(0.56476 2.94433e-21 6.95209)
(0.565021 0 6.9538)
(0.565371 5.89121e-21 6.95511)
(0.565829 -5.89209e-21 6.95616)
(0.566436 -1.17857e-20 6.95703)
(0.567237 -2.3574e-20 6.95781)
(0.568287 -4.71531e-20 6.95857)
(0.569677 -7.07377e-20 6.95937)
(0.571508 -4.71645e-20 6.96026)
(0.573918 0 6.96133)
(0.577091 0 6.96264)
(0.581269 0 6.96428)
(0.586765 -1.88823e-19 6.96637)
(0.593998 -2.43463e-25 6.96903)
(0.603504 1.88987e-19 6.97242)
(0.616005 0 6.97668)
(0.632257 0 6.982)
(0.653976 7.57681e-19 6.9885)
(0.682243 7.58519e-19 6.99623)
(0.719494 1.51953e-18 7.00504)
(0.767798 1.32731e-21 7.01439)
(0.831089 1.52273e-18 7.02306)
(0.913363 9.18008e-23 7.02866)
(1.01999 3.04681e-18 7.02702)
(1.15715 6.14341e-18 7.01127)
(1.33189 -1.20872e-17 6.97076)
(1.55069 -1.17751e-17 6.8901)
(1.81711 -1.19983e-18 6.74848)
(2.12705 -9.33782e-19 6.52084)
(2.46291 4.33181e-18 6.18233)
(2.79075 9.83833e-18 5.71854)
(3.05204 2.68255e-16 5.15594)
(3.11693 -1.18316e-16 4.54236)
(3.02387 3.61705e-15 3.81203)
(2.89171 -5.52681e-17 3.07421)
(2.74767 -5.95715e-15 2.41565)
(2.61182 1.07202e-14 1.8283)
(2.49282 4.63633e-18 1.28956)
(2.39059 1.77872e-14 0.779696)
(2.29844 -3.28348e-14 0.279292)
(2.20247 -6.07085e-14 -0.237189)
(2.0786 0 -0.81951)
(1.89477 -4.8453e-14 -1.60092)
(1.67278 -7.65136e-14 -3.29624)
(0.604597 0 1.24214)
(0.604578 0 3.38504)
(0.604571 0 5.01292)
(0.604589 0 6.18897)
(0.6046 5.76526e-24 6.96977)