/*--------------------------------*- C++ -*----------------------------------*\
  =========                 |
  \\      /  F ield         | OpenFOAM: The Open Source CFD Toolbox
   \\    /   O peration     | Website:  https://openfoam.org
    \\  /    A nd           | Version:  7
     \\/     M anipulation  |
\*---------------------------------------------------------------------------*/
FoamFile
{
    version     2.0;
    format      ascii;
    class       volVectorField;
    location    "0";
    object      U;
}
// * * * * * * * * * * * * * * * * * * * * * * * * * * * * * * * * * * * * * //

dimensions      [0 1 -1 0 0 0 0];

internalField   nonuniform List<vector> 
14336
(
(9.60250641981387 0 1.06414061604562e-07)
(9.60252937371412 0 3.65808381459871e-07)
(9.60257899283932 0 4.79220485921347e-07)
(9.60250215098483 0 5.33933115370224e-07)
(9.60261359975142 5.10155014362572e-31 6.16769661986648e-07)
(9.60254344258414 5.09069132269345e-31 6.15456910867226e-07)
(9.60259455743943 -2.3245999454217e-30 7.02637440709533e-07)
(9.60262040696422 -1.65949742089788e-34 7.97178335390975e-07)
(9.60264715745495 -2.90596525933989e-30 8.78554978311373e-07)
(9.60248999015652 -1.3338776378987e-29 1.00805006611721e-06)
(9.60271267337885 -7.63233982190121e-30 1.15356720720179e-06)
(9.60265365535359 0 1.34362940878232e-06)
(9.60267963309107 4.25153231332188e-29 1.60708629552553e-06)
(9.60267916511707 -5.18620633219018e-29 1.96099864483281e-06)
(9.60266685093756 -1.28247571926813e-28 2.4238321830453e-06)
(9.60273437465883 0 3.03323390892003e-06)
(9.60275180166667 -8.11359960518507e-28 3.83555155655727e-06)
(9.60264352413824 -1.03408160025408e-27 4.88732471781096e-06)
(9.60272170600584 0 6.26995270264425e-06)
(9.60275442515333 0 8.08940783481598e-06)
(9.60283116055055 0 1.04834146901378e-05)
(9.60279278485316 1.15314315307235e-26 1.363497701563e-05)
(9.60280038959388 3.00832900682744e-26 1.77831181751363e-05)
(9.60281069594781 1.96629072350928e-26 2.3242954131709e-05)
(9.60270556567039 0 3.04266699813601e-05)
(9.60300395033026 0 3.9887367938308e-05)
(9.60286905822111 0 5.23426008684313e-05)
(9.60277612087792 0 6.87248964312306e-05)
(9.60293405799 0 9.02910710139218e-05)
(9.60287878020729 0 0.000118680560016991)
(9.60286657390007 2.10981969335355e-24 0.000156038342627606)
(9.60294035288416 2.7762856610207e-24 0.000205214853959722)
(9.60295210737681 0 0.000269950441118764)
(9.60307308181262 0 0.000355182477213687)
(9.60290158484526 2.52634993237733e-23 0.000467333380647772)
(9.60291786894436 3.32619498689291e-23 0.000614878753051867)
(9.60297389900061 0 0.000809102929711412)
(9.60298333650766 0 0.00106476715175366)
(9.60305587993174 0 0.00140132752315601)
(9.60303137486787 3.98660564399192e-22 0.00184431560684568)
(9.60307254018223 5.25088106683277e-22 0.00242735976088256)
(9.60315449313407 0 0.00319494884232511)
(9.60300442301675 1.81746983240787e-21 0.00420484413408586)
(9.60328763413768 2.39413997965929e-21 0.00553455537593463)
(9.603184999634 0 0.00728512445802354)
(9.60335574238321 1.65733764988039e-20 0.00958901243566729)
(9.60353821804362 4.3649399755125e-20 0.0126222141314832)
(9.60391682796549 5.7454150936462e-20 0.0166162129798812)
(9.60440095424255 -3.77600710225446e-20 0.021876557629591)
(9.6053928184413 -9.96472849482777e-20 0.0288086697240989)
(9.60692586466736 0 0.0379517683023623)
(9.60975289351281 3.45625357218179e-19 0.0500307103087434)
(9.61443729751122 1.36895926622209e-18 0.0660304311459911)
(9.62266866987196 -8.78825117299662e-19 0.0873198603844578)
(9.63687264655379 3.2011209538799e-18 0.11587615159095)
(9.66170762994632 1.71277649655061e-19 0.154690916652307)
(9.70519862391603 5.77106336353025e-18 0.208664582994157)
(9.78271321827653 0 0.286620017871415)
(9.92237861842179 -2.24588175121789e-17 0.40634443327714)
(10.1826478491342 2.48924843148328e-16 0.609001105539714)
(10.6917950291483 -1.11310284732617e-16 1.00616989569177)
(11.7820264270675 6.52750007695473e-16 1.97288478534634)
(14.4764771683138 2.06760823155812e-15 5.17633556829999)
(22.8455952781538 0 21.3102526443788)
(9.2078317409514 0 -2.67161418758213e-08)
(9.20783269524198 -3.23130768194897e-33 3.1254859137801e-08)
(9.20783379374061 -8.88062179017114e-32 1.71786438284002e-07)
(9.20782785651646 -2.31442419642221e-31 1.86550971424754e-07)
(9.20783703414763 -1.33724947572884e-31 1.61687334093239e-07)
(9.20782548958945 -3.64484124198609e-31 2.20376614831503e-07)
(9.2078311771168 -5.21553341388952e-31 3.15319130932275e-07)
(9.20783075443903 -1.44140252286078e-30 4.35803727192799e-07)
(9.20782990842516 -6.05302266274818e-30 6.10018745355254e-07)
(9.20782194978543 -5.60387104940444e-30 8.47070972244895e-07)
(9.20783515907298 0 1.17217582499968e-06)
(9.20782387960206 0 1.59734416980204e-06)
(9.20783044601303 0 2.14006819987584e-06)
(9.20782819909816 0 2.86078197909006e-06)
(9.20782481690754 -2.01526670605221e-28 3.80958624438543e-06)
(9.20782824748912 -2.67602682273932e-28 5.05772681675326e-06)
(9.20782784651538 0 6.70241509637991e-06)
(9.20782339879712 1.87647543419271e-27 8.86973197004683e-06)
(9.20782639295929 2.48044514106533e-27 1.17218982731585e-05)
(9.20782348960659 6.54712506421924e-27 1.54756165287505e-05)
(9.20782800775309 8.6388789468805e-27 2.04146307498686e-05)
(9.20782783718759 -2.27711863792116e-26 2.69144017216949e-05)
(9.20782115878378 -3.00169455965122e-26 3.54686843169425e-05)
(9.20782388055373 0 4.67271698804894e-05)
(9.20780876403843 0 6.15436808984735e-05)
(9.20783784576992 0 8.10443131598655e-05)
(9.2078265570605 0 0.000106708382583017)
(9.20781589074886 0 0.000140482570083607)
(9.20782300078857 0 0.000184934368950529)
(9.2078212883823 -3.29387135693898e-24 0.000243437379116539)
(9.20782123489585 -2.09588927333913e-27 0.000320429338715271)
(9.20782213246361 1.14144030543382e-23 0.000421759533391165)
(9.2078222712613 -7.50588523837153e-24 0.000555121355367014)
(9.20783369789505 -8.06112350068761e-27 0.000730643960345594)
(9.20781667501968 -2.59974332005933e-23 0.000961634173931286)
(9.20781082279944 -3.22444138983865e-26 0.00126563697427683)
(9.20782128213265 9.0164448313984e-23 0.00166573868412714)
(9.20781995555175 -2.37187022660692e-22 0.00219230363163296)
(9.20782559171448 -3.12324573408827e-22 0.00288532521896102)
(9.20782329036752 0 0.003797407006017)
(9.20782923964975 1.08119740191555e-21 0.00499780113213488)
(9.2078419325601 4.2696913794729e-21 0.00657768806010577)
(9.20782817766745 3.74763205465105e-21 0.00865691611920793)
(9.20786734899346 0 0.0113935018507935)
(9.20785861812704 0 0.0149951810668727)
(9.20792300340899 3.41451543448891e-20 0.0197356847908774)
(9.20800345066221 4.49702743246551e-20 0.0259759420556001)
(9.2081695003623 -5.91480772184259e-20 0.034191717511777)
(9.20839230092208 -7.79150315160054e-20 0.0450101324079702)
(9.2088334718444 0 0.059261524189872)
(9.20953937217055 0 0.0780451286522259)
(9.21081566576041 7.11350045281918e-19 0.102837648997963)
(9.2129500669176 9.38796677138029e-19 0.135616237599962)
(9.21667902512765 -1.99855377725587e-18 0.179099221283688)
(9.22311336114113 -6.55901194843171e-18 0.237111694218306)
(9.234265459324 -1.67378805473169e-17 0.315272761392448)
(9.25357756599159 2.77316348775721e-17 0.422302643071903)
(9.28719882732516 1.58605878779634e-17 0.572961777490465)
(9.34537224208406 1.29697124949111e-16 0.794607073505317)
(9.44586494539139 1.35678991448572e-16 1.14374471389951)
(9.61599482101924 -2.20877042520047e-19 1.75131513064231)
(9.88129592674836 1.42512018923269e-15 2.95961566851202)
(10.1192960194045 4.19713801128805e-15 5.75478233972028)
(8.70085909475455 -5.5923127080452e-15 12.6056165351584)
(8.74349783414862 8.85017707374848e-34 3.42388613366701e-08)
(8.74349924017231 1.67360899992137e-33 6.47460093267431e-08)
(8.74349986418366 0 5.29082565607984e-08)
(8.74349940104218 0 7.51532163089224e-08)
(8.74349341872453 0 1.35111471204765e-07)
(8.74349656866674 0 2.21172551830945e-07)
(8.74349812919376 0 3.31559789668572e-07)
(8.74349551854617 0 4.65488154407912e-07)
(8.74349584824296 -4.36130461160861e-30 6.59480850216739e-07)
(8.74350213352768 -1.82755367144853e-29 9.21085946888859e-07)
(8.74348751914384 -1.66720354072106e-29 1.26026222039193e-06)
(8.74350002091787 -4.51971129793695e-29 1.70889575629836e-06)
(8.74348999102864 -1.47924038802577e-32 2.31063691710478e-06)
(8.74349282719347 -8.20394341733587e-29 3.10299466280803e-06)
(8.74349508129223 -6.65658562152865e-32 4.13650918027506e-06)
(8.74349124556672 -2.90681627736269e-28 5.49850477188497e-06)
(8.74349915598783 -2.66263548943604e-31 7.29276288067687e-06)
(8.74349298167897 1.0211446201633e-27 9.65282087798517e-06)
(8.7434890359417 2.69865578838967e-27 1.27594097757177e-05)
(8.74349608260209 3.56406975196897e-27 1.68462116835176e-05)
(8.74348478793021 0 2.22257854258273e-05)
(8.7434910275314 -2.47873130710859e-26 2.93070043113747e-05)
(8.74348949127127 -3.2680612576662e-26 3.8625767559861e-05)
(8.74349020393263 -8.60640957520481e-26 5.08898955356883e-05)
(8.74349634571745 -2.26748860963143e-25 6.70306312237214e-05)
(8.74348175989545 -1.49327539333661e-25 8.82731599955789e-05)
(8.74349588850503 3.93050903119438e-25 0.000116231687322646)
(8.74348598052754 1.55259824782542e-24 0.000153028127291247)
(8.74348437958561 8.52041916683356e-28 0.000201453165923098)
(8.74348660004286 -1.79403154418691e-24 0.000265185427822426)
(8.74348892528952 -4.72013537743246e-24 0.000349066894813277)
(8.74348398118836 -6.21625634411507e-24 0.000459461136673694)
(8.74348879047424 0 0.000604747716992496)
(8.74347463067264 2.15215214378724e-23 0.000795959936910446)
(8.74349644813324 8.49905398836673e-23 0.0010476208056813)
(8.74348294526394 7.46014395600706e-23 0.0013788081567428)
(8.74348584918518 -1.96203422803731e-22 0.00181468673200549)
(8.74348294669413 -5.16606292183857e-22 0.00238836369785698)
(8.74348378791171 -3.40062339218793e-22 0.00314336727040623)
(8.74348285908005 -8.9434899182406e-22 0.00413703065834901)
(8.74348342021944 -9.08844612353066e-25 0.0054447931794295)
(8.7434829337777 1.55023244432615e-21 0.00716595051184125)
(8.7434795436009 0 0.00943118475655712)
(8.74347833630486 1.0729793697134e-20 0.0124125229290661)
(8.7434775247612 1.21179201073892e-23 0.016336410143291)
(8.74347195430182 -1.86006537594907e-20 0.0215009777260479)
(8.74346872030626 4.89138526652404e-20 0.0282989045816065)
(8.7434580895138 6.4437321244175e-20 0.0372475748335835)
(8.74344178442204 0 0.0490292950494238)
(8.74341744454548 0 0.0645435522603403)
(8.74337026465909 0 0.0849905882597986)
(8.74329587778574 0 0.111946151462306)
(8.74315101076152 0 0.147542917824278)
(8.74289471973063 0 0.194662300620948)
(8.74242646268915 -1.46916228719024e-17 0.257292514614434)
(8.74151612680895 -1.20192585797463e-20 0.341137872183262)
(8.73965315514445 2.77379089801026e-17 0.454736280603955)
(8.73555238051139 -6.06167410213564e-17 0.611760686410563)
(8.72569468552357 2.4219708568589e-16 0.835959128560716)
(8.69975364701763 0 1.17257469240889)
(8.62495863726856 0 1.71615141356575)
(8.38815681448122 0 2.68013185319766)
(7.55569059644082 5.37120921914447e-15 4.55439248692241)
(4.31065254061581 3.60653395702615e-15 8.13408923760495)
(8.36597694907915 0 -2.37918338028233e-09)
(8.36597572153424 0 7.589991250573e-08)
(8.36597852321678 0 1.66501738380343e-07)
(8.36597387644967 0 1.87785035441998e-07)
(8.36597420930196 0 2.27900474728964e-07)
(8.36597665173801 0 3.05748186897512e-07)
(8.36597321991408 1.38301144634315e-30 4.18204493399903e-07)
(8.3659748898115 3.6959953958505e-30 5.58804097650541e-07)
(8.36597849344307 2.44018435566711e-30 7.3784766582583e-07)
(8.36596362438979 1.28632094666513e-29 9.72743287869448e-07)
(8.36597339450199 6.56445935571272e-33 1.28508460305022e-06)
(8.36597655031894 -2.24481205540423e-29 1.69745469162532e-06)
(8.36597287391031 0 2.24088206495879e-06)
(8.36597010664958 0 2.95611654752938e-06)
(8.36597290312788 2.06095412486897e-28 3.89898423076089e-06)
(8.36597230012239 2.71982261155841e-28 5.1435516135964e-06)
(8.36597146428918 0 6.77743354153843e-06)
(8.36596391955708 1.88680059677968e-27 8.92669709688044e-06)
(8.36596795106949 2.48566601800365e-27 1.17547590977854e-05)
(8.36596810237716 0 1.54765669735323e-05)
(8.36597149729359 0 2.03764826930203e-05)
(8.36596756012111 2.26646457282021e-26 2.68238236571814e-05)
(8.36597294545043 2.98519737673919e-26 3.53091229581671e-05)
(8.36596838873047 0 4.64768704631614e-05)
(8.36597489399456 0 6.11750643884579e-05)
(8.36596444464334 0 8.05189121232984e-05)
(8.36596219659587 0 0.000105976687117829)
(8.36596760806721 0 0.000139480831155984)
(8.36597261018126 0 0.00018357574375664)
(8.36596574412821 -3.26299492113953e-24 0.00024160972221847)
(8.36596069721156 -4.29809336100864e-24 0.000317986505755245)
(8.3659687793377 0 0.00041850562435122)
(8.36596364398306 -1.48717476717611e-23 0.000550803429033156)
(8.36595990894836 -1.95909919711748e-23 0.000724912811706164)
(8.36596218950141 0 0.000954061758813286)
(8.36596952898856 0 0.00125567198643301)
(8.36596234652191 0 0.00165260014580645)
(8.36596464005318 0 0.00217497364805491)
(8.36596320840362 0 0.00286247757462269)
(8.36596233145116 0 0.00376730511424777)
(8.36595901370776 0 0.00495815265168849)
(8.36595559368807 0 0.00652543203977614)
(8.36594855520389 0 0.00858815220682117)
(8.3659366015234 0 0.0113029630753994)
(8.36591866975272 0 0.0148760186762582)
(8.36588710403337 -3.37715339027268e-20 0.0195787352565013)
(8.36583142280201 -6.88321805075362e-23 0.0257685274618442)
(8.36573677405527 5.85741427838001e-20 0.0339161424441767)
(8.36557348338231 -1.53936614312215e-19 0.0446419933189858)
(8.36529294909425 -2.02939780204921e-19 0.0587661851166979)
(8.36480147621428 0 0.0773652896576241)
(8.36395092090805 0 0.101876536445736)
(8.36247462526347 0 0.134211820119993)
(8.35990796712822 2.43831525376847e-18 0.176938249416099)
(8.3554176340654 -4.02323166489582e-18 0.233550569023557)
(8.34752148214234 -5.97099659568437e-18 0.308924298695159)
(8.33348213381302 1.13184330240684e-17 0.410111809471176)
(8.30806229717868 8.78131655696912e-17 0.547809696345297)
(8.26060423820498 1.55439114565539e-16 0.739334283395404)
(8.16764009008411 -1.11685367159582e-16 1.01485696566599)
(7.97179110424759 -1.57847905606297e-16 1.43043936684307)
(7.51564471229895 -3.34070206015822e-15 2.0928263483565)
(6.30487613223223 0 3.19365858888091)
(2.60986003028387 0 5.06187064801119)
(8.0957398747831 0 1.6631283260621e-08)
(8.09573957549322 3.97362166859403e-33 3.84404042659297e-08)
(8.09573619028163 1.88854539253034e-32 6.08994569769194e-08)
(8.09573717737229 2.31790101993817e-32 1.12106602817876e-07)
(8.09574199075792 0 1.78549041808732e-07)
(8.09573741194558 -4.08326384657701e-31 2.47016026680051e-07)
(8.09573729698636 -5.64965374130778e-31 3.41698486043415e-07)
(8.0957365183226 1.53094689694728e-30 4.63234562544285e-07)
(8.09573484051874 -2.04696351303969e-30 6.19705482258994e-07)
(8.09573695674832 -5.4318728559652e-30 8.21632906245547e-07)
(8.09573902745453 -1.43382073028755e-29 1.08534303444699e-06)
(8.09573536097477 -1.90501675832616e-29 1.44136868629818e-06)
(8.09573589136368 -5.03316815747716e-29 1.90563248121476e-06)
(8.09573595435908 -6.64723499045654e-29 2.51540969030096e-06)
(8.09573663639702 0 3.31725436232138e-06)
(8.09573232243798 0 4.37313480540511e-06)
(8.09573334513929 0 5.76305762247413e-06)
(8.09573123021493 0 7.59239485866923e-06)
(8.09574241907348 0 1.00003413878446e-05)
(8.09572872576588 0 1.31689011816709e-05)
(8.09573425740017 0 1.73383541622878e-05)
(8.09573595105972 0 2.28266426128598e-05)
(8.09572841890497 0 3.00498963064968e-05)
(8.09573269382539 -6.66952415994498e-26 3.9555921313849e-05)
(8.09572684176327 -1.20674832677624e-28 5.20665440601242e-05)
(8.09573282782057 1.1566151627662e-25 6.85317420085507e-05)
(8.09573003813598 0 9.02012711187384e-05)
(8.09573659891633 -7.99932634382031e-25 0.000118721985593436)
(8.09572837796973 -1.05430344494231e-24 0.000156260490848086)
(8.09573163161391 -2.770374756462e-24 0.000205664169562981)
(8.09573249230225 -6.43599556831474e-27 0.00027068143198934)
(8.0957292979704 9.60160190833729e-24 0.00035625487917796)
(8.09572824889946 6.32307400570994e-24 0.000468875612236976)
(8.09573391194973 0 0.00061709516954147)
(8.09572383310561 0 0.000812169818849226)
(8.09572449412926 -5.75051357507554e-23 0.00106889526358267)
(8.09572814510303 -2.27166909108338e-22 0.00140678949367056)
(8.09572727656278 -1.9956182343328e-22 0.00185151589148669)
(8.09572489301541 0 0.00243682405984474)
(8.09572198079132 6.89605449190514e-22 0.00320715435697777)
(8.0957185196234 9.09446235735847e-22 0.00422099102706948)
(8.09571337801682 -2.387777684043e-21 0.00555530834824241)
(8.0957038935016 -6.29102319708246e-21 0.00731142794574655)
(8.0956899223383 -1.24131421852859e-20 0.00962270568178926)
(8.09566250968817 -1.09075911432252e-20 0.0126646379958583)
(8.09561700407011 2.86299285285322e-20 0.0166682615074655)
(8.0955388763747 1.02973472935181e-22 0.0219377509433103)
(8.0954049451964 -4.96998051176881e-20 0.028873573302429)
(8.09517160823122 0 0.0380032380636657)
(8.09476750456548 8.77638522315562e-19 0.0500207563500972)
(8.09407063229763 4.51694927539665e-19 0.0658478771071871)
(8.09286143540475 1.75664815389462e-18 0.0866926770253167)
(8.09076184257031 -5.96162041466398e-19 0.114163501564395)
(8.08711163502481 -2.06829779229352e-18 0.15040046062077)
(8.08075520358012 0 0.198284866638881)
(8.06963401056422 -2.11669214749551e-17 0.261733415376024)
(8.05004157886355 -9.51281478092878e-18 0.346198619013152)
(8.01508756061319 2.51333458208803e-17 0.459484959809483)
(7.95140777310444 4.75103822867476e-16 0.613163029933092)
(7.83134186050532 0 0.824761360621059)
(7.59124238782984 0 1.12085588430489)
(7.07192566477848 9.4464812679252e-15 1.5320400856219)
(5.8040082621975 4.16491030058484e-14 2.04320596923356)
(2.11534680733231 0 2.45267112168861)
(7.91145978841149 1.99937944276771e-34 1.54718407039477e-08)
(7.91145852743543 4.03407649321482e-34 3.12145466195937e-08)
(7.91145748689742 0 3.92256130825905e-08)
(7.91146199052704 0 5.88632027251509e-08)
(7.91145357310945 8.31065572254795e-32 1.0063707061126e-07)
(7.91146104987594 1.36939772718244e-31 1.65717434931551e-07)
(7.9114572545233 8.17725550612342e-31 2.47620691102022e-07)
(7.91145807341496 1.15595050510463e-30 3.49842911232457e-07)
(7.91144958727999 -3.18044545391756e-30 4.81811097802157e-07)
(7.91146668052736 4.29090352851772e-30 6.51053706528979e-07)
(7.91145508264006 1.15230398641989e-29 8.72569508156441e-07)
(7.91145854886839 0 1.16718612583546e-06)
(7.91145168548337 -4.0924769515233e-29 1.55231208161754e-06)
(7.9114588153295 -1.62869694234077e-28 2.05914560182635e-06)
(7.91145405959636 -2.02571332460814e-31 2.72625019800175e-06)
(7.91145717815417 1.9015527913567e-28 3.60484598897053e-06)
(7.91145239194929 0 4.76128472388346e-06)
(7.91146326306631 -1.32248541187798e-27 6.28352547048253e-06)
(7.91145288804983 -1.74679778513664e-27 8.28728395004618e-06)
(7.91145908183047 0 1.09245642638787e-05)
(7.91145518345986 -6.05285842220719e-27 1.43947441115135e-05)
(7.91144925795779 -7.98707840772155e-27 1.89617918495363e-05)
(7.91145401819284 0 2.49725454729406e-05)
(7.91145322879871 0 3.2883622991736e-05)
(7.91145219063079 7.26978428441622e-26 4.32958783909532e-05)
(7.91144983376054 9.59134578933434e-26 5.69999585753927e-05)
(7.91145663621115 0 7.50364091385945e-05)
(7.91145148057706 0 9.8773851532984e-05)
(7.91145058767385 0 0.000130012239302068)
(7.91145203897564 2.29390216059911e-24 0.000171125505208453)
(7.91145478120939 6.04548614324022e-24 0.00022523928853457)
(7.91144892335013 3.98335213830379e-24 0.000296454540744885)
(7.9114523208083 0 0.000390184376938073)
(7.91145622425536 0 0.000513544058576779)
(7.9114517266202 0 0.000675892473624646)
(7.9114534684091 4.7575447006707e-23 0.000889569795117607)
(7.91144400067211 6.28207905839168e-23 0.00117079673209256)
(7.91144409911361 0 0.00154092107307302)
(7.91144275225486 4.33279092990435e-22 0.00202804134472193)
(7.91144066808145 5.72295474360246e-22 0.00266914123914677)
(7.91143719440404 -7.49915826520548e-22 0.00351290333204257)
(7.91143097829641 -9.90714358645798e-22 0.0046233905130863)
(7.91142107839231 0 0.00608493059381676)
(7.91140407355648 -6.82803007277653e-21 0.00800849963498373)
(7.91137501892917 -1.80062895737087e-20 0.0105401508270528)
(7.9113254049096 -1.18724403861304e-20 0.0138721374360787)
(7.91123933200566 -3.10931655611812e-20 0.018256414737705)
(7.91109045602565 -4.11080820010916e-20 0.0240296147523369)
(7.91083186259117 0 0.0316268070252052)
(7.91038635755474 7.16042372872443e-19 0.0416279192292423)
(7.90961032419401 -1.04483089620219e-18 0.0547891121933099)
(7.90826985009422 1.71483618709758e-18 0.0721210394782814)
(7.90594184643686 4.24924754665142e-19 0.0949429979905651)
(7.90190131985521 5.14720996271483e-18 0.125006728128309)
(7.894875962712 4.46424540698974e-18 0.164636564621528)
(7.8826266027981 -1.55566982609277e-17 0.216933235353561)
(7.8611548281853 -7.68232388022801e-18 0.28603386438858)
(7.8231740724629 -1.29128690778283e-16 0.377488560163931)
(7.75486160356044 4.30515947383503e-16 0.498618728576003)
(7.62928189590097 0 0.657587487483207)
(7.38291125998377 -6.91848227824832e-15 0.862268369686936)
(6.87416021125998 1.17690602116379e-14 1.10026563233509)
(5.69642050933111 4.07139988958186e-14 1.22504223810056)
(2.34123011482016 1.34213613469113e-13 0.333894676753921)
(7.78762207660628 0 -6.67740042951564e-09)
(7.78762194174409 1.47868710093862e-33 -1.42776914270695e-08)
(7.78762690379369 -2.11893735537458e-33 6.87762030032531e-09)
(7.78762179670004 -3.42305013217151e-32 5.52732353888281e-08)
(7.78762109418994 3.97884761420732e-32 9.66102544082739e-08)
(7.7876187106606 1.12523887941088e-31 1.3629507618317e-07)
(7.78762185333154 0 1.9495446432708e-07)
(7.78762064405018 -9.08445225202726e-31 2.75754472613941e-07)
(7.7876192833225 -3.78609084628845e-30 3.83181905224231e-07)
(7.7876237161266 -3.44667838853508e-30 5.22885423390822e-07)
(7.78762103107547 0 7.0727969892813e-07)
(7.78761180921547 0 9.4997610794449e-07)
(7.78762489558221 3.33613597950575e-29 1.26996477953539e-06)
(7.78762024046032 -4.43102110084391e-29 1.69175311978088e-06)
(7.78761735442169 -2.36004059684356e-28 2.245736938352e-06)
(7.78762150316115 -1.56459079344939e-28 2.97522723993197e-06)
(7.78761755621953 0 3.93506643548715e-06)
(7.78762221613708 0 5.19806806043402e-06)
(7.78761473657719 0 6.86053439267664e-06)
(7.78762166909962 0 9.04837420168246e-06)
(7.78761307691615 -4.98638585700895e-27 1.19280846600591e-05)
(7.78762090372658 -6.59145115286542e-27 1.57179380931347e-05)
(7.78761891263708 0 2.07058797338905e-05)
(7.78761769299096 0 2.72708218508544e-05)
(7.78762239861112 0 3.59101256150583e-05)
(7.7876194169787 0 4.72793322935414e-05)
(7.78761249420988 0 6.22448607179301e-05)
(7.78761160729597 -5.45012091752691e-25 8.19436118574395e-05)
(7.78762132227884 -7.20690185577725e-25 0.000107869124435352)
(7.78761673605955 0 0.00014198969185175)
(7.78761183069181 0 0.000186897498463848)
(7.78761879039411 0 0.000246002838773119)
(7.78761429343327 0 0.000323788331174366)
(7.7876092952623 1.12912167826432e-23 0.000426180594275615)
(7.78762303822689 1.49437415919676e-23 0.00056093499199252)
(7.78760878319026 3.90595171309566e-23 0.000738281567289325)
(7.78761910693548 5.17112025574199e-23 0.00097166399399762)
(7.7876082731409 1.35050391982388e-22 0.00127881204335211)
(7.78760817948405 -1.76358054803172e-22 0.00168310064056398)
(7.78760584578114 -4.70622721808935e-22 0.00221520257439181)
(7.78760232689154 0 0.00291551496418563)
(7.78759665588086 0 0.00383721053704877)
(7.78758662827317 2.12581345430308e-21 0.00505028236072363)
(7.78756910603515 8.40918078965055e-21 0.00664684565521466)
(7.78753920432765 7.4135414546552e-21 0.0087481287447845)
(7.78748806497172 -1.93265685072232e-20 0.0115136849723191)
(7.78740244200492 -2.22196413299489e-22 0.0151545249424426)
(7.7872491869558 3.37286976994364e-20 0.0199440207744228)
(7.7869851533431 0 0.0262478582707507)
(7.78652893779212 0 0.034547002275034)
(7.78574046888436 -8.44133112087726e-19 0.0454686390434644)
(7.78437062654106 -2.08746144761255e-18 0.0598429900662354)
(7.78199734548397 -5.30755581090848e-19 0.0787593413067821)
(7.77788397014281 6.74627387684067e-18 0.103659292807361)
(7.77074441503501 0 0.136421947266354)
(7.75833238502577 -2.69175415296598e-17 0.179515676936381)
(7.7366976885121 1.19869577861559e-16 0.236111804221889)
(7.69877884245874 -4.10799028621458e-16 0.310100799310472)
(7.63065026394602 0 0.406430639869587)
(7.51058119531772 -6.77683632245804e-15 0.525790092867544)
(7.27216390456949 -3.25016638040782e-14 0.667843754086565)
(6.7996824457111 3.31859960230262e-16 0.80444208004554)
(5.747579882413 -1.64232964652451e-13 0.709460147783765)
(2.87526060674183 1.572747417728e-13 -1.15685755225892)
(7.70435620153246 0 7.68848912279895e-09)
(7.70435707927929 0 2.15291482836804e-08)
(7.70435554115705 -9.21428584628999e-33 4.46288011592582e-08)
(7.70435307709965 1.53259398765912e-32 7.43966931503433e-08)
(7.70435938347939 4.26557369401657e-32 1.03313365781396e-07)
(7.70435455042294 0 1.42852709834869e-07)
(7.70435615976452 0 1.95699597353534e-07)
(7.70435549411084 0 2.63090445559703e-07)
(7.70435924437515 -2.30168476357779e-30 3.50670724130729e-07)
(7.70435267025029 3.05097980098105e-30 4.66750940638126e-07)
(7.70435275946013 8.1657845274429e-30 6.21264166018237e-07)
(7.70435817856858 0 8.24619575962566e-07)
(7.70435582461803 -2.85191794775254e-29 1.09167391553322e-06)
(7.70435324183144 -3.78245150018531e-29 1.4432195474917e-06)
(7.7043541851995 0 1.9059168548021e-06)
(7.70435145441227 0 2.51472708382099e-06)
(7.70435787310982 0 3.31598759748587e-06)
(7.70434488158909 9.07340613983684e-28 4.37029344616926e-06)
(7.70435472034816 1.2011293781004e-27 5.75767176806283e-06)
(7.70435196113013 0 7.58389134337728e-06)
(7.70435363987477 0 9.98705428710862e-06)
(7.70435577167557 0 1.31503281411786e-05)
(7.70435333335449 0 1.73138613722368e-05)
(7.70435258098862 0 2.27931601082478e-05)
(7.70434524645912 0 3.00072529437041e-05)
(7.70436071481241 0 3.95021023174077e-05)
(7.70434831484112 0 5.19940114796034e-05)
(7.70435900364084 4.48250941112205e-25 6.843012843504e-05)
(7.70434790437582 5.94871475151924e-25 9.00674968894653e-05)
(7.70435067558296 1.54920188943003e-24 0.0001185502289942)
(7.70435087585635 2.0571348414681e-24 0.000156029065795806)
(7.70434997190903 -2.67546106500905e-24 0.000205358426971601)
(7.70435287686686 3.47719614190171e-24 0.000270287194664666)
(7.70434689722484 1.12009756356079e-25 0.000355712930599253)
(7.70434486551783 -1.22846754508618e-23 0.000468186772986515)
(7.7043527195071 0 0.0006162013709852)
(7.70435114014187 0 0.000811028767325667)
(7.70435174704626 -1.10287408317361e-22 0.00106745223618517)
(7.70434658048772 -1.46869617235926e-22 0.00140486352529355)
(7.70434433848283 3.81001105932018e-22 0.00184896839968524)
(7.70434079956266 5.07745305165128e-22 0.0024334728090285)
(7.70433506325701 0 0.00320275557522207)
(7.70432587350723 -1.72918421224942e-21 0.00421522287908437)
(7.70430873520875 -2.3070815413845e-21 0.00554776288892041)
(7.70427989977924 -2.01285195959426e-20 0.00730148572262797)
(7.70422880470791 7.9767559232554e-21 0.00960981209255538)
(7.70414136652551 -5.22053070945925e-20 0.0126476342296348)
(7.70399002737143 0 0.0166460514001493)
(7.7037289815069 0 0.0219091656309036)
(7.70327508212623 0 0.0288338592857748)
(7.70248925684413 2.45776449853189e-19 0.0379489374201317)
(7.70112842871924 -1.3409143023311e-18 0.0499428673854291)
(7.69877298472882 0 0.0657266247545659)
(7.69468934836574 -1.44606490889843e-17 0.0864888362980881)
(7.68761317567461 4.89364927863434e-17 0.113794891544021)
(7.67534023678347 -9.47493013934123e-20 0.149669740458967)
(7.65412330793788 1.1134991446033e-16 0.196667579201937)
(7.61809854839286 -4.35689982716069e-16 0.256905169249296)
(7.54961470725843 -1.71800249079359e-17 0.336111742178826)
(7.44444185082442 -6.61573765380231e-15 0.424597693367104)
(7.21602522544773 -7.70889402297017e-14 0.51978905754218)
(6.77695431990854 0 0.605156186490623)
(5.83159903152564 -1.66065543902281e-13 0.399313001746762)
(3.42324785906202 -1.79502111476052e-13 -2.09728323817396)
(7.64800435608963 0 4.38650653133996e-09)
(7.64800411584496 0 1.40601120741291e-08)
(7.64800052129559 0 2.45132332231455e-08)
(7.64800272220443 -1.65180437179081e-32 4.02443406193344e-08)
(7.64800541459256 -2.73032820517028e-32 6.63214469119585e-08)
(7.64800665592363 0 1.00257244227375e-07)
(7.64800141437014 0 1.43121781014368e-07)
(7.64800362565491 0 2.00276034829481e-07)
(7.6480056225628 0 2.75377603052651e-07)
(7.64800400372646 0 3.73503280222204e-07)
(7.64799939139227 0 5.03030559720607e-07)
(7.64800580448921 0 6.73895581694854e-07)
(7.64800151452955 0 8.98454846479188e-07)
(7.64800136582861 0 1.19380698015304e-06)
(7.64800355909077 0 1.58269700344342e-06)
(7.64800240844136 2.14914097342342e-28 2.09453755416044e-06)
(7.64800161280084 2.86230213519077e-28 2.76809922086918e-06)
(7.64800026576466 0 3.65451928185379e-06)
(7.64800298519003 0 4.82136048713699e-06)
(7.64799777282142 0 6.35706075850012e-06)
(7.64800859646253 -3.39649249168698e-27 8.37838780090861e-06)
(7.64799765914646 -4.52321335263427e-27 1.10387817026565e-05)
(7.6480011228861 -1.17306996322777e-26 1.45402158776907e-05)
(7.64799970018744 -1.56342750178424e-26 1.91487441401763e-05)
(7.64800208738783 4.04096565032158e-26 2.5209509064062e-05)
(7.64799059814343 5.3929530220876e-26 3.3190231839332e-05)
(7.64800592015963 0 4.36981480421116e-05)
(7.648000790013 0 5.75326250931416e-05)
(7.64799857809715 -4.81196433487372e-25 7.57356922774307e-05)
(7.6480002809452 -6.43476261457074e-25 9.96839689682269e-05)
(7.6480050890941 0 0.000131211171542743)
(7.64799907144237 -2.17698602194811e-24 0.00017270472234785)
(7.64799807879025 -2.91718304297302e-24 0.000227321620825003)
(7.64800890320659 7.50571545885646e-24 0.00029921809734161)
(7.6479910100944 1.00693317992932e-23 0.000393798794225652)
(7.64800263877147 0 0.000518328616315247)
(7.64799215861609 0 0.000682228619254182)
(7.64800001151164 0 0.000897940145171813)
(7.6479994473977 2.3399103287203e-22 0.0011818759332425)