# Wall shear stress
# Time        	patch         	min           	max           
1.000000e+00	airfoil	(-5.211746e+01 -9.887782e+01 -6.007462e-16)	(2.529515e+01 1.993944e+01 2.061760e-16)
