# Wall shear stress
# Time        	patch         	min           	max           
9.975000e-01	airfoil	(-5.235737e+01 -1.017317e+02 -6.383389e-16)	(2.630600e+01 1.955028e+01 2.030436e-16)
