# Wall shear stress
# Time        	patch         	min           	max           
0.000000e+00	airfoil	(-4.275587e+01 -1.964540e+01 -4.290716e-21)	(-1.493880e+00 2.037263e+01 9.503590e-22)
