/*--------------------------------*- C++ -*----------------------------------*\
  =========                 |
  \\      /  F ield         | OpenFOAM: The Open Source CFD Toolbox
   \\    /   O peration     | Website:  https://openfoam.org
    \\  /    A nd           | Version:  7
     \\/     M anipulation  |
\*---------------------------------------------------------------------------*/
FoamFile
{
    version     2.0;
    format      ascii;
    class       volScalarField;
    location    "1";
    object      p;
}
// * * * * * * * * * * * * * * * * * * * * * * * * * * * * * * * * * * * * * //

dimensions      [0 2 -2 0 0 0 0];

internalField   nonuniform List<scalar> 
76363
(
2578.85
2577.48
2578.14
2578.9
2576.65
2577.29
2578.04
2578.81
2579.59
2573.79
2574.43
2575.19
2575.96
2576.75
2577.58
2571.13
2571.77
2572.52
2573.29
2574.08
2574.9
2575.76
2576.67
2567.16
2567.79
2568.55
2569.32
2570.1
2570.92
2571.79
2572.7
2573.65
2563.19
2563.81
2564.57
2565.33
2566.11
2566.92
2567.78
2568.68
2569.62
2570.6
2571.63
2558.35
2558.98
2559.73
2560.48
2561.26
2562.07
2562.92
2563.82
2564.75
2565.73
2566.76
2567.82
2553.34
2553.95
2554.7
2555.45
2556.22
2557.03
2557.87
2558.77
2559.7
2560.67
2561.69
2562.76
2563.86
2547.76
2548.37
2549.11
2549.86
2550.62
2551.42
2552.27
2553.15
2554.08
2555.05
2556.07
2557.12
2558.23
2559.38
2542.09
2542.69
2543.43
2544.17
2544.92
2545.71
2546.55
2547.43
2548.35
2549.31
2550.32
2551.37
2552.47
2553.61
2554.79
2536
2536.6
2537.33
2538.07
2538.81
2539.6
2540.43
2541.3
2542.21
2543.17
2544.17
2545.21
2546.3
2547.44
2548.62
2549.85
2529.82
2530.41
2531.14
2531.86
2532.6
2533.38
2534.2
2535.07
2535.97
2536.92
2537.91
2538.95
2540.03
2541.16
2542.33
2543.55
2544.81
2523.43
2524.01
2524.73
2525.45
2526.18
2526.95
2527.76
2528.62
2529.52
2530.46
2531.44
2532.47
2533.54
2534.66
2535.82
2537.04
2538.29
2539.57
2516.99
2517.56
2518.27
2518.98
2519.71
2520.46
2521.27
2522.11
2523
2523.93
2524.91
2525.92
2526.98
2528.09
2529.24
2530.45
2531.69
2532.95
2534.25
2510.48
2511.04
2511.74
2512.44
2513.15
2513.9
2514.69
2515.53
2516.41
2517.32
2518.28
2519.29
2520.34
2521.43
2522.58
2523.76
2524.99
2526.24
2527.52
2503.96
2504.51
2505.21
2505.9
2506.59
2507.33
2508.11
2508.93
2509.8
2510.7
2511.65
2512.64
2513.68
2514.76
2515.89
2517.06
2518.27
2519.51
2520.77
2522.06
2497.45
2497.99
2498.68
2499.35
2500.04
2500.76
2501.53
2502.34
2503.19
2504.08
2505.02
2505.99
2507.01
2508.08
2509.19
2510.35
2511.54
2512.76
2514
2515.27
2516.57
2491.01
2491.53
2492.21
2492.87
2493.54
2494.25
2495
2495.8
2496.63
2497.51
2498.43
2499.39
2500.39
2501.44
2502.53
2503.67
2504.84
2506.04
2507.26
2508.51
2509.79
2484.65
2485.16
2485.82
2486.47
2487.13
2487.82
2488.56
2489.34
2490.15
2491.01
2491.91
2492.85
2493.83
2494.86
2495.93
2497.05
2498.2
2499.37
2500.57
2501.8
2503.05
2504.34
2478.43
2478.92
2479.57
2480.2
2480.84
2481.52
2482.23
2482.99
2483.79
2484.63
2485.5
2486.42
2487.38
2488.39
2489.43
2490.53
2491.65
2492.8
2493.97
2495.16
2496.39
2497.64
2472.37
2472.85
2473.47
2474.09
2474.71
2475.36
2476.06
2476.8
2477.57
2478.38
2479.24
2480.13
2481.06
2482.04
2483.06
2484.12
2485.22
2486.33
2487.47
2488.63
2489.82
2491.04
2492.3
2466.52
2466.98
2467.58
2468.17
2468.77
2469.4
2470.07
2470.78
2471.53
2472.32
2473.14
2474
2474.9
2475.85
2476.84
2477.86
2478.92
2480
2481.1
2482.22
2483.38
2484.56
2485.77
2460.9
2461.34
2461.92
2462.48
2463.05
2463.66
2464.3
2464.98
2465.69
2466.45
2467.24
2468.06
2468.93
2469.84
2470.78
2471.77
2472.79
2473.82
2474.88
2475.96
2477.07
2478.2
2479.37
2480.57
2455.55
2455.96
2456.51
2457.05
2457.59
2458.16
2458.76
2459.41
2460.09
2460.8
2461.55
2462.34
2463.16
2464.02
2464.92
2465.86
2466.83
2467.82
2468.83
2469.85
2470.91
2471.99
2473.1
2474.25
2450.48
2450.86
2451.38
2451.88
2452.38
2452.91
2453.48
2454.08
2454.72
2455.39
2456.09
2456.83
2457.61
2458.42
2459.27
2460.16
2461.07
2462
2462.95
2463.92
2464.91
2465.93
2466.98
2468.07
2445.72
2446.06
2446.54
2447
2447.46
2447.95
2448.47
2449.03
2449.61
2450.23
2450.88
2451.57
2452.29
2453.04
2453.83
2454.65
2455.51
2456.37
2457.25
2458.16
2459.08
2460.04
2461.02
2462.03
2463.07
2441.27
2441.57
2442
2442.42
2442.83
2443.27
2443.74
2444.25
2444.78
2445.34
2445.93
2446.55
2447.21
2447.89
2448.62
2449.37
2450.15
2450.94
2451.75
2452.58
2453.43
2454.3
2455.2
2456.13
2457.1
2437.16
2437.41
2437.79
2438.16
2438.52
2438.9
2439.32
2439.76
2440.23
2440.72
2441.25
2441.8
2442.38
2442.99
2443.63
2444.31
2445.01
2445.72
2446.44
2447.19
2447.95
2448.74
2449.55
2450.39
2451.26
2433.4
2433.61
2433.93
2434.24
2434.54
2434.86
2435.21
2435.58
2435.98
2436.4
2436.84
2437.31
2437.81
2438.34
2438.89
2439.48
2440.08
2440.7
2441.33
2441.98
2442.64
2443.33
2444.04
2444.78
2445.55
2446.35
2430.03
2430.17
2430.43
2430.67
2430.9
2431.15
2431.43
2431.72
2432.04
2432.37
2432.73
2433.11
2433.51
2433.94
2434.4
2434.88
2435.38
2435.89
2436.42
2436.95
2437.51
2438.08
2438.68
2439.31
2439.96
2440.66
2427.05
2427.13
2427.32
2427.48
2427.63
2427.8
2427.99
2428.2
2428.42
2428.66
2428.91
2429.19
2429.49
2429.8
2430.14
2430.51
2430.89
2431.29
2431.69
2432.1
2432.53
2432.98
2433.46
2433.96
2434.49
2435.05
2424.5
2424.49
2424.6
2424.67
2424.74
2424.82
2424.91
2425.02
2425.14
2425.27
2425.41
2425.57
2425.75
2425.94
2426.15
2426.37
2426.62
2426.88
2427.15
2427.42
2427.72
2428.03
2428.37
2428.73
2429.12
2429.55
2422.34
2422.25
2422.26
2422.24
2422.21
2422.18
2422.17
2422.16
2422.16
2422.17
2422.19
2422.22
2422.26
2422.32
2422.38
2422.46
2422.55
2422.66
2422.77
2422.89
2423.03
2423.18
2423.38
2423.61
2423.83
2424.12
2424.42
2420.69
2420.5
2420.41
2420.29
2420.15
2420.02
2419.89
2419.76
2419.63
2419.5
2419.37
2419.25
2419.13
2419.02
2418.91
2418.82
2418.73
2418.65
2418.58
2418.51
2418.45
2418.41
2418.45
2418.53
2418.59
2418.73
2418.89
2419.31
2418.99
2418.76
2418.51
2418.24
2417.99
2417.74
2417.51
2417.29
2417.05
2416.8
2416.54
2416.28
2416.01
2415.75
2415.49
2415.22
2414.94
2414.65
2414.37
2414.09
2413.81
2413.51
2413.31
2413.21
2413.23
2413.3
2418.96
2418.49
2418.12
2417.74
2417.31
2416.83
2416.35
2415.86
2415.41
2414.99
2414.6
2414.19
2413.75
2413.29
2412.83
2412.36
2411.91
2411.45
2410.98
2410.53
2410.06
2409.6
2409.14
2408.62
2408.15
2407.64
2407.35
2418.57
2418.06
2417.63
2417.14
2416.59
2416
2415.39
2414.77
2414.14
2413.53
2412.91
2412.27
2411.6
2410.92
2410.22
2409.51
2408.82
2408.13
2407.43
2406.73
2406.05
2405.41
2404.82
2404.09
2403.37
2402.69
2402.03
2401.47
2418.67
2418.09
2417.52
2416.87
2416.15
2415.42
2414.66
2413.88
2413.07
2412.24
2411.39
2410.52
2409.63
2408.71
2407.78
2406.85
2405.91
2404.96
2404
2403.03
2402.07
2401.12
2400.18
2399.26
2398.41
2397.68
2396.83
2395.98
2419.53
2418.77
2418.02
2417.19
2416.31
2415.39
2414.44
2413.46
2412.43
2411.37
2410.27
2409.14
2407.98
2406.81
2405.62
2404.41
2403.2
2401.96
2400.71
2399.45
2398.2
2396.95
2395.73
2394.53
2393.38
2392.29
2391.27
2390.4
2420.87
2419.93
2418.99
2417.98
2416.91
2415.79
2414.62
2413.4
2412.14
2410.83
2409.47
2408.07
2406.62
2405.15
2403.66
2402.15
2400.63
2399.1
2397.53
2395.95
2394.38
2392.81
2391.28
2389.78
2388.33
2386.96
2385.66
2384.47
2422.7
2421.59
2420.45
2419.24
2417.96
2416.62
2415.22
2413.76
2412.23
2410.65
2409.01
2407.31
2405.56
2403.77
2401.95
2400.09
2398.23
2396.34
2394.44
2392.52
2390.6
2388.7
2386.82
2384.99
2383.23
2381.54
2379.95
2378.47
2425.08
2423.78
2422.43
2421.01
2419.5
2417.92
2416.26
2414.53
2412.72
2410.83
2408.88
2406.86
2404.78
2402.65
2400.46
2398.24
2395.99
2393.72
2391.44
2389.15
2386.87
2384.59
2382.34
2380.16
2378.05
2376.04
2374.14
2372.38
2427.99
2426.49
2424.91
2423.26
2421.51
2419.67
2417.74
2415.71
2413.59
2411.38
2409.09
2406.71
2404.27
2401.75
2399.18
2396.57
2393.91
2391.23
2388.52
2385.8
2383.1
2380.43
2377.8
2375.24
2372.76
2370.4
2368.18
2366.12
2364.25
2431.49
2429.77
2427.94
2426.03
2424.03
2421.9
2419.67
2417.32
2414.86
2412.3
2409.64
2406.88
2404.03
2401.1
2398.1
2395.05
2391.95
2388.83
2385.67
2382.49
2379.32
2376.21
2373.18
2370.21
2367.34
2364.62
2362.05
2359.68
2357.52
2435.54
2433.59
2431.49
2429.32
2427.03
2424.61
2422.05
2419.35
2416.53
2413.58
2410.52
2407.34
2404.05
2400.67
2397.21
2393.69
2390.11
2386.5
2382.86
2379.21
2375.57
2371.96
2368.45
2365.05
2361.78
2358.65
2355.73
2353.02
2350.58
2440.17
2437.96
2435.59
2433.13
2430.54
2427.79
2424.88
2421.81
2418.6
2415.24
2411.73
2408.1
2404.34
2400.47
2396.51
2392.47
2388.38
2384.24
2380.07
2375.9
2371.74
2367.64
2363.61
2359.72
2356.01
2352.49
2349.18
2346.14
2343.38
2445.37
2442.89
2440.22
2437.45
2434.54
2431.45
2428.16
2424.7
2421.06
2417.25
2413.28
2409.16
2404.89
2400.49
2395.98
2391.39
2386.73
2382.03
2377.29
2372.55
2367.85
2363.21
2358.66
2354.26
2350.08
2346.12
2342.42
2339.02
2335.95
2451.12
2448.37
2445.38
2442.29
2439.05
2435.58
2431.9
2428.01
2423.92
2419.63
2415.16
2410.5
2405.69
2400.72
2395.63
2390.44
2385.17
2379.85
2374.5
2369.16
2363.86
2358.64
2353.55
2348.63
2343.92
2339.51
2335.4
2331.64
2328.27
2457.43
2454.39
2451.07
2447.65
2444.04
2440.19
2436.08
2431.74
2427.17
2422.37
2417.36
2412.14
2406.73
2401.16
2395.44
2389.6
2383.68
2377.7
2371.7
2365.7
2359.76
2353.93
2348.25
2342.78
2337.54
2332.65
2328.13
2324
2320.33
2464.29
2460.94
2457.28
2453.51
2449.53
2445.26
2440.71
2435.89
2430.81
2425.47
2419.88
2414.06
2408.02
2401.79
2395.4
2388.87
2382.25
2375.57
2368.86
2362.17
2355.55
2349.07
2342.77
2336.71
2330.95
2325.57
2320.59
2316.09
2312.11
2471.67
2468.02
2464
2459.86
2455.49
2450.8
2445.78
2440.45
2434.83
2428.92
2422.72
2416.26
2409.55
2402.62
2395.51
2388.25
2380.88
2373.44
2365.98
2358.55
2351.21
2344.03
2337.07
2330.4
2324.09
2318.18
2312.76
2307.88
2303.59
2479.57
2475.6
2471.22
2466.71
2461.93
2456.78
2451.28
2445.42
2439.23
2432.71
2425.88
2418.73
2411.31
2403.64
2395.76
2387.72
2379.55
2371.31
2363.05
2354.83
2346.73
2338.81
2331.16
2323.84
2316.94
2310.49
2304.62
2299.37
2294.78
2290.9
2487.96
2483.67
2478.92
2474.02
2468.83
2463.22
2457.2
2450.79
2444.01
2436.86
2429.34
2421.48
2413.31
2404.85
2396.15
2387.28
2378.26
2369.17
2360.06
2351.01
2342.09
2333.4
2325.01
2317.02
2309.52
2302.53
2296.2
2290.57
2285.68
2281.62
2496.84
2492.22
2487.09
2481.8
2476.17
2470.09
2463.54
2456.56
2449.16
2441.34
2433.11
2424.49
2415.52
2406.24
2396.68
2386.92
2377.01
2367.01
2357
2347.07
2337.3
2327.79
2318.63
2309.93
2301.76
2294.25
2287.48
2281.5
2276.31
2272.1
2506.16
2501.22
2495.72
2490.03
2483.96
2477.38
2470.28
2462.71
2454.67
2446.15
2437.18
2427.77
2417.97
2407.8
2397.34
2386.64
2375.79
2364.84
2353.88
2343.01
2332.34
2321.97
2312.01
2302.59
2293.74
2285.69
2278.47
2272.17
2266.75
2262.52
2515.96
2510.68
2504.79
2498.69
2492.16
2485.08
2477.43
2469.24
2460.53
2451.29
2441.54
2431.31
2420.63
2409.55
2398.13
2386.45
2374.6
2362.64
2350.69
2338.84
2327.22
2315.94
2305.15
2294.92
2285.46
2276.84
2269.16
2262.54
2256.99
2252.81
2526.11
2520.52
2514.25
2507.74
2500.77
2493.17
2484.95
2476.14
2466.74
2456.76
2446.21
2435.12
2423.52
2411.47
2399.05
2386.34
2373.44
2360.43
2347.42
2334.54
2321.92
2309.7
2298.03
2287
2276.86
2267.66
2259.53
2252.57
2246.9
2242.57
2536.81
2530.83
2524.14
2517.22
2509.78
2501.65
2492.85
2483.39
2473.29
2462.53
2451.15
2439.16
2426.61
2413.56
2400.08
2386.3
2372.3
2358.19
2344.08
2330.11
2316.45
2303.24
2290.63
2278.83
2267.97
2258.17
2249.58
2242.26
2236.48
2231.66
2547.49
2541.22
2534.15
2526.82
2518.94
2510.3
2500.92
2490.82
2480.01
2468.48
2456.25
2443.35
2429.83
2415.74
2401.18
2386.29
2371.16
2355.9
2340.65
2325.57
2310.83
2296.61
2283.03
2270.4
2258.82
2248.42
2239.4
2231.71
2225.86
2220.19
1644.04
1668.3
1685.54
1699.54
1714.25
1729.78
1745.04
1759.51
1773.45
1787.29
1801.65
1815.77
1830.47
1844.31
1858.26
1871.36
1884.21
1896.7
1908.83
1920.74
1932.29
1943.59
1954.53
1965.18
1975.53
1985.6
1995.39
2004.93
2014.2
2023.31
2032.09
2040.78
2049.08
2057.31
2065.15
2072.89
2080.29
2087.56
2094.54
2101.37
2107.93
2114.34
2120.51
2126.52
2132.32
2137.94
2143.37
2148.63
2153.71
2158.63
2163.37
2167.95
2172.36
2176.63
2180.73
2184.69
89.5915
76.3765
66.2558
59.5223
52.4112
43.9021
35.346
27.3031
19.7037
12.3814
4.86734
-2.39601
-9.83827
-16.7929
-23.7193
-30.2329
-36.6371
-42.8113
-48.8126
-54.6267
-60.2732
-65.7419
-71.0405
-76.155
-81.1224
-85.9175
-90.5666
-95.05
-99.3863
-103.589
-107.62
-111.543
-115.28
-118.927
-122.4
-125.779
-128.989
-132.103
-135.064
-137.933
-140.66
-143.288
-145.784
-148.182
-150.462
-152.645
-154.715
-156.689
-158.562
-160.347
-162.052
-163.69
-165.299
-166.733
-167.971
-168.993
-169.833
1332.42
1345.55
1358.19
1367.94
1377.07
1386.74
1396.57
1406.21
1415.63
1424.85
1433.93
1442.79
1451.54
1460.04
1468.44
1476.56
1484.6
1492.38
1500.07
1507.51
1514.85
1521.96
1528.94
1535.71
1542.35
1548.78
1555.09
1561.2
1567.19
1572.99
1578.67
1584.16
1589.53
1594.73
1599.81
1604.73
1609.52
1614.17
1618.69
1623.08
1627.34
1631.47
1635.48
1639.37
1643.13
1646.79
1650.33
1653.78
1657.11
1660.38
1663.53
1666.74
1669.25
1670.18
1670.77
1671.3
1671.7
1671.84
1671.69
769.846
767.375
765.674
762.788
759.138
755.645
752.281
749.269
746.487
743.552
740.721
737.974
735.303
732.753
730.187
727.687
725.217
722.809
720.44
718.088
715.767
713.573
711.444
709.48
707.546
705.661
703.784
701.886
699.992
698.227
696.474
694.816
693.21
691.691
690.228
688.823
687.448
686.074
684.728
683.526
682.354
681.271
680.256
679.264
678.291
677.337
676.478
675.668
674.945
674.204
673.609
672.758
672.505
674.046
676.074
677.74
679.231
680.798
682.548
684.412
686.421
1356.74
1365.35
1372.28
1378.44
1385.02
1391.58
1398.05
1404.2
1409.74
1415.43
1421.18
1426.83
1432.34
1437.54
1442.59
1447.67
1452.66
1457.64
1462.59
1467.48
1472.27
1476.99
1481.62
1486.04
1490.28
1494.28
1498.17
1502.11
1506.09
1510.01
1513.94
1517.78
1521.5
1525.08
1528.55
1531.95
1535.29
1538.49
1541.72
1544.9
1548.04
1550.99
1553.78
1556.13
1557.87
1559.56
1561.26
1562.94
1564.51
1565.99
1567.38
1568.73
1570.01
1571.21
1572.2
1573.12
1573.88
1574.59
1575.17
1575.67
1576.01
1576.24
1167.24
1164.92
1166.94
1167.98
1167.51
1166.85
1166.37
1166.22
1166.17
1165.97
1165.88
1165.8
1165.74
1165.68
1165.6
1165.5
1165.42
1165.38
1165.38
1165.36
1165.39
1165.49
1165.63
1165.85
1166.07
1166.2
1166.39
1166.55
1166.65
1166.86
1167.02
1167.13
1167.19
1167.35
1167.55
1167.68
1167.76
1167.71
1167.72
1167.9
1167.99
1168.16
1168.23
1168.57
1169.86
1171.46
1172.8
1173.86
1175.04
1176.35
1177.72
1179.13
1180.66
1182.12
1183.65
1185.23
1186.86
1188.55
1190.32
1192.08
1193.9
1195.74
1197.61
1199.53
1479.97
1486.03
1491.83
1496.03
1499.97
1504.12
1508.47
1512.72
1516.82
1520.87
1524.86
1528.79
1532.67
1536.5
1540.26
1543.98
1547.65
1551.28
1554.88
1558.39
1561.88
1565.32
1568.64
1572.04
1575.26
1578.46
1581.56
1584.1
1586.6
1589.06
1591.26
1593.46
1596.09
1599.14
1601.84
1604.26
1606.4
1608.53
1610.99
1613.4
1615.57
1617.75
1619.96
1622.07
1624.11
1625.94
1627.38
1629.14
1631.12
1632.56
1633.95
1635.97
1637.59
1638.7
1639.82
1640.89
1641.83
1642.8
1643.75
1644.53
1645.23
1645.87
1646.53
1647.15
1647.68
1648.08
1445.67
1446.73
1450.63
1453.03
1454.17
1455.29
1456.57
1457.82
1458.96
1460.02
1461.07
1462.11
1463.12
1464.09
1465.03
1465.93
1466.79
1467.6
1468.4
1469.15
1469.88
1470.56
1471.24
1471.87
1472.49
1473.03
1473.65
1474.72
1475.96
1477.13
1478.2
1479.27
1480.38
1481.58
1482.75
1483.86
1484.94
1486.02
1487.17
1488.34
1489.51
1490.69
1491.9
1493.1
1494.31
1495.53
1496.77
1498.05
1499.37
1500.69
1502.01
1503.35
1504.68
1505.99
1507.32
1508.68
1510.05
1511.46
1512.87
1514.28
1515.7
1517.15
1518.6
1520.06
1521.53
1523.01
1524.49
1526.01
1621.49
1626.01
1632.4
1636.6
1639.86
1643.21
1646.76
1650.34
1653.85
1657.31
1660.75
1664.15
1667.53
1670.87
1674.18
1677.45
1680.69
1683.91
1687.1
1690.25
1693.38
1696.48
1699.56
1702.59
1705.61
1708.59
1711.56
1714.47
1717.3
1720.06
1722.76
1725.41
1728
1730.53
1733
1735.42
1737.78
1740.08
1742.32
1744.51
1746.65
1748.73
1750.76
1752.74
1754.66
1756.54
1758.37
1760.14
1761.87
1763.54
1765.17
1766.75
1768.29
1769.77
1771.21
1772.6
1773.95
1775.25
1776.51
1777.72
1778.89
1780.02
1781.1
1782.15
1783.16
1784.14
1785.07
1785.97
1786.82
1787.64
1640.47
1641.93
1646.59
1649.63
1651.51
1653.42
1655.55
1657.71
1659.77
1661.76
1663.74
1665.7
1667.65
1669.58
1671.49
1673.38
1675.25
1677.1
1678.94
1680.76
1682.56
1684.35
1686.12
1687.88
1689.63
1691.36
1693.08
1694.8
1696.5
1698.19
1699.87
1701.53
1703.19
1704.83
1706.47
1708.1
1709.71
1711.31
1712.9
1714.49
1716.06
1717.62
1719.17
1720.71
1722.24
1723.76
1725.28
1726.78
1728.27
1729.75
1731.22
1732.68
1734.13
1735.57
1737
1738.42
1739.84
1741.24
1742.63
1744.02
1745.4
1746.77
1748.13
1749.48
1750.82
1752.15
1753.48
1754.79
1756.1
1757.4
1758.69
1759.98
1770.45
1774.5
1779.78
1783.61
1786.84
1790.14
1793.57
1796.94
1800.22
1803.47
1806.69
1809.89
1813.04
1816.16
1819.24
1822.27
1825.27
1828.23
1831.14
1834.02
1836.86
1839.66
1842.41
1845.13
1847.8
1850.44
1853.04
1855.59
1858.1
1860.58
1863.01
1865.4
1867.75
1870.06
1872.34
1874.57
1876.76
1878.91
1881.03
1883.1
1885.14
1887.14
1889.1
1891.02
1892.9
1894.75
1896.57
1898.34
1900.08
1901.78
1903.45
1905.08
1906.68
1908.25
1909.78
1911.27
1912.73
1914.17
1915.57
1916.93
1918.27
1919.58
1920.85
1922.1
1923.32
1924.52
1925.68
1926.82
1927.94
1929.02
1930.08
1931.12
1932.13
1933.12
1800.2
1802.32
1807.05
1810.32
1812.6
1814.93
1817.46
1819.99
1822.44
1824.83
1827.2
1829.55
1831.89
1834.2
1836.49
1838.75
1840.99
1843.2
1845.4
1847.56
1849.71
1851.83
1853.94
1856.02
1858.08
1860.12
1862.14
1864.13
1866.11
1868.07
1870.01
1871.92
1873.82
1875.7
1877.57
1879.41
1881.24
1883.04
1884.83
1886.6
1888.36
1890.09
1891.81
1893.51
1895.19
1896.86
1898.5
1900.13
1901.75
1903.34
1904.92
1906.48
1908.03
1909.56
1911.07
1912.57
1914.05
1915.52
1916.97
1918.4
1919.82
1921.23
1922.62
1924
1925.37
1926.72
1928.06
1929.39
1930.7
1932
1933.29
1934.56
1935.83
1937.08
1938.31
1939.54
1895.18
1899.1
1903.98
1907.68
1910.87
1914.12
1917.48
1920.8
1924.03
1927.22
1930.38
1933.5
1936.58
1939.63
1942.64
1945.6
1948.53
1951.42
1954.27
1957.08
1959.85
1962.58
1965.28
1967.93
1970.55
1973.13
1975.67
1978.17
1980.63
1983.06
1985.45
1987.8
1990.11
1992.39
1994.64
1996.84
1999.01
2001.15
2003.24
2005.31
2007.34
2009.33
2011.29
2013.22
2015.11
2016.97
2018.8
2020.59
2022.35
2024.08
2025.78
2027.45
2029.09
2030.69
2032.27
2033.81
2035.33
2036.82
2038.29
2039.72
2041.13
2042.52
2043.88
2045.21
2046.52
2047.81
2049.07
2050.31
2051.52
2052.72
2053.89
2055.04
2056.17
2057.28
2058.36
2059.43
2060.47
2061.5
1929.02
1931.76
1936.2
1939.52
1942.12
1944.77
1947.54
1950.31
1953
1955.64
1958.26
1960.85
1963.42
1965.96
1968.47
1970.95
1973.4
1975.83
1978.23
1980.6
1982.94
1985.26
1987.55
1989.82
1992.06
1994.27
1996.46
1998.63
2000.77
2002.88
2004.98
2007.04
2009.09
2011.1
2013.1
2015.07
2017.02
2018.94
2020.84
2022.72
2024.58
2026.41
2028.22
2030.01
2031.78
2033.52
2035.25
2036.95
2038.63
2040.3
2041.94
2043.56
2045.16
2046.75
2048.31
2049.86
2051.39
2052.9
2054.39
2055.87
2057.33
2058.77
2060.2
2061.61
2063.01
2064.39
2065.75
2067.1
2068.44
2069.75
2071.06
2072.34
2073.61
2074.87
2076.12
2077.34
2078.56
2079.76
2080.95
2082.13
2000.46
2004.27
2008.87
2012.49
2015.67
2018.9
2022.21
2025.48
2028.68
2031.84
2034.96
2038.04
2041.09
2044.1
2047.07
2050
2052.9
2055.75
2058.57
2061.35
2064.09
2066.8
2069.47
2072.1
2074.69
2077.25
2079.77
2082.25
2084.7
2087.11
2089.49
2091.83
2094.13
2096.39
2098.63
2100.83
2102.99
2105.12
2107.21
2109.28
2111.31
2113.31
2115.27
2117.2
2119.1
2120.97
2122.81
2124.62
2126.4
2128.15
2129.87
2131.57
2133.23
2134.87
2136.48
2138.07
2139.63
2141.17
2142.68
2144.16
2145.62
2147.06
2148.48
2149.87
2151.24
2152.59
2153.91
2155.22
2156.5
2157.76
2159
2160.22
2161.43
2162.61
2163.77
2164.92
2166.05
2167.16
2168.26
2169.34
2170.4
2171.45
2033.5
2036.57
2040.85
2044.22
2047.03
2049.87
2052.8
2055.72
2058.56
2061.36
2064.13
2066.88
2069.59
2072.27
2074.92
2077.53
2080.12
2082.68
2085.21
2087.7
2090.16
2092.6
2095.01
2097.38
2099.73
2102.05
2104.34
2106.6
2108.83
2111.03
2113.21
2115.36
2117.48
2119.57
2121.64
2123.68
2125.7
2127.69
2129.65
2131.59
2133.5
2135.39
2137.25
2139.09
2140.91
2142.71
2144.48
2146.23
2147.95
2149.66
2151.35
2153.01
2154.66
2156.28
2157.88
2159.47
2161.03
2162.58
2164.11
2165.62
2167.11
2168.58
2170.04
2171.47
2172.89
2174.3
2175.68
2177.05
2178.4
2179.73
2181.05
2182.36
2183.65
2184.92
2186.18
2187.42
2188.65
2189.87
2191.07
2192.26
2193.43
2194.6
2195.75
2196.88
2198.01
2088.35
2092.08
2096.46
2100.03
2103.21
2106.44
2109.71
2112.96
2116.13
2119.26
2122.36
2125.42
2128.45
2131.43
2134.38
2137.29
2140.17
2143
2145.8
2148.56
2151.28
2153.97
2156.62
2159.23
2161.81
2164.35
2166.85
2169.32
2171.75
2174.15
2176.51
2178.84
2181.12
2183.38
2185.61
2187.8
2189.96
2192.08
2194.17
2196.23
2198.26
2200.26
2202.23
2204.17
2206.07
2207.96
2209.81
2211.63
2213.43
2215.19
2216.94
2218.65
2220.34
2222.01
2223.64
2225.26
2226.85
2228.41
2229.95
2231.47
2232.97
2234.44
2235.89
2237.32
2238.72
2240.11
2241.47
2242.82
2244.14
2245.45
2246.74
2248.01
2249.26
2250.49
2251.71
2252.91
2254.09
2255.26
2256.41
2257.55
2258.67
2259.77
2260.86
2261.94
2263
2264.05
2265.09
2118.46
2121.71
2125.85
2129.24
2132.18
2135.14
2138.16
2141.16
2144.1
2146.99
2149.85
2152.67
2155.47
2158.23
2160.96
2163.65
2166.31
2168.94
2171.54
2174.1
2176.63
2179.13
2181.6
2184.03
2186.43
2188.8
2191.15
2193.45
2195.73
2197.98
2200.21
2202.4
2204.56
2206.69
2208.8
2210.88
2212.94
2214.96
2216.96
2218.94
2220.89
2222.81
2224.71
2226.58
2228.44
2230.26
2232.07
2233.85
2235.61
2237.35
2239.06
2240.76
2242.43
2244.08
2245.71
2247.31
2248.9
2250.47
2252.02
2253.55
2255.05
2256.54
2258.01
2259.47
2260.9
2262.32
2263.72
2265.1
2266.47
2267.82
2269.15
2270.47
2271.78
2273.06
2274.34
2275.59
2276.84
2278.07
2279.28
2280.49
2281.68
2282.85
2284.02
2285.17
2286.31
2287.44
2288.55
2289.66
2290.75
2291.83
2161.1
2164.76
2168.96
2172.47
2175.65
2178.86
2182.11
2185.32
2188.46
2191.57
2194.64
2197.68
2200.68
2203.64
2206.57
2209.45
2212.3
2215.12
2217.89
2220.63
2223.33
2226
2228.62
2231.21
2233.77
2236.29
2238.78
2241.23
2243.65
2246.03
2248.38
2250.7
2252.98
2255.23
2257.45
2259.63
2261.79
2263.91
2266.01
2268.07
2270.11
2272.11
2274.09
2276.03
2277.96
2279.85
2281.72
2283.56
2285.37
2287.15
2288.91
2290.65
2292.36
2294.04
2295.7
2297.34
2298.95
2300.54
2302.11
2303.65
2305.18
2306.68
2308.16
2309.62
2311.06
2312.48
2313.88
2315.26
2316.62
2317.96
2319.29
2320.59
2321.89
2323.16
2324.42
2325.65
2326.88
2328.09
2329.28
2330.46
2331.62
2332.77
2333.9
2335.03
2336.14
2337.23
2338.31
2339.38
2340.44
2341.48
2342.52
2343.54
2187.44
2190.78
2194.78
2198.15
2201.17
2204.19
2207.26
2210.3
2213.27
2216.21
2219.11
2221.98
2224.81
2227.62
2230.38
2233.11
2235.81
2238.47
2241.1
2243.69
2246.25
2248.78
2251.28
2253.74
2256.17
2258.57
2260.94
2263.28
2265.59
2267.87
2270.12
2272.34
2274.53
2276.69
2278.83
2280.94
2283.02
2285.08
2287.11
2289.11
2291.09
2293.04
2294.97
2296.87
2298.75
2300.6
2302.43
2304.24
2306.02
2307.78
2309.52
2311.23
2312.93
2314.6
2316.24
2317.87
2319.48
2321.07
2322.64
2324.18
2325.71
2327.22
2328.71
2330.18
2331.64
2333.07
2334.49
2335.89
2337.28
2338.65
2340
2341.34
2342.66
2343.97
2345.26
2346.53
2347.79
2349.04
2350.27
2351.49
2352.69
2353.89
2355.06
2356.23
2357.38
2358.52
2359.65
2360.76
2361.87
2362.96
2364.04
2365.12
2366.18
2367.23
2368.27
2220.76
2224.36
2228.38
2231.82
2234.99
2238.17
2241.38
2244.55
2247.66
2250.73
2253.77
2256.77
2259.74
2262.67
2265.56
2268.42
2271.24
2274.02
2276.77
2279.47
2282.15
2284.79
2287.4
2289.96
2292.5
2295
2297.47
2299.9
2302.3
2304.67
2307.01
2309.32
2311.59
2313.83
2316.04
2318.23
2320.38
2322.5
2324.59
2326.65
2328.69
2330.7
2332.68
2334.63
2336.55
2338.45
2340.32
2342.17
2343.99
2345.78
2347.55
2349.29
2351.01
2352.71
2354.38
2356.03
2357.65
2359.26
2360.84
2362.4
2363.94
2365.46
2366.95
2368.43
2369.89
2371.33
2372.75
2374.15
2375.54
2376.9
2378.25
2379.58
2380.9
2382.19
2383.47
2384.74
2385.99
2387.22
2388.45
2389.65
2390.84
2392.02
2393.18
2394.33
2395.47
2396.59
2397.71
2398.81
2399.9
2400.97
2402.04
2403.1
2404.15
2405.18
2406.19
2407.18
2408.15
2243.15
2246.53
2250.39
2253.72
2256.77
2259.81
2262.89
2265.93
2268.91
2271.86
2274.77
2277.65
2280.49
2283.3
2286.07
2288.81
2291.51
2294.18
2296.82
2299.42
2301.99
2304.53
2307.04
2309.51
2311.95
2314.36
2316.74
2319.09
2321.41
2323.7
2325.96
2328.2
2330.4
2332.57
2334.72
2336.84
2338.93
2341
2343.03
2345.05
2347.03
2348.99
2350.92
2352.83
2354.71
2356.57
2358.41
2360.22
2362
2363.76
2365.51
2367.22
2368.92
2370.59
2372.25
2373.88
2375.49
2377.08
2378.65
2380.2
2381.73
2383.24
2384.73
2386.21
2387.67
2389.11
2390.53
2391.93
2393.32
2394.69
2396.05
2397.39
2398.71
2400.02
2401.31
2402.59
2403.85
2405.1
2406.33
2407.55
2408.76
2409.95
2411.13
2412.29
2413.45
2414.59
2415.72
2416.83
2417.94
2419.03
2420.11
2421.18
2422.24
2423.27
2424.29
2425.28
2426.25
2427.21
2428.14
2429.06
2269.16
2272.69
2276.54
2279.92
2283.06
2286.2
2289.36
2292.48
2295.55
2298.58
2301.58
2304.54
2307.47
2310.36
2313.21
2316.03
2318.81
2321.57
2324.28
2326.96
2329.6
2332.22
2334.79
2337.34
2339.85
2342.33
2344.78
2347.19
2349.57
2351.93
2354.25
2356.54
2358.8
2361.03
2363.23
2365.4
2367.54
2369.66
2371.74
2373.79
2375.82
2377.82
2379.8
2381.74
2383.66
2385.56
2387.43
2389.27
2391.09
2392.88
2394.65
2396.4
2398.12
2399.82
2401.5
2403.16
2404.79
2406.4
2408
2409.57
2411.11
2412.64
2414.15
2415.64
2417.12
2418.57
2420
2421.42
2422.82
2424.2
2425.56
2426.91
2428.24
2429.55
2430.85
2432.13
2433.4
2434.65
2435.89
2437.11
2438.32
2439.51
2440.69
2441.86
2443.01
2444.16
2445.29
2446.41
2447.51
2448.61
2449.7
2450.76
2451.81
2452.83
2453.84
2454.82
2455.78
2456.73
2457.66
2458.57
2459.47
2460.34
2461.2
2287.78
2291.15
2294.87
2298.15
2301.2
2304.24
2307.3
2310.32
2313.29
2316.22
2319.12
2321.98
2324.81
2327.61
2330.37
2333.09
2335.79
2338.45
2341.07
2343.66
2346.22
2348.75
2351.25
2353.71
2356.14
2358.54
2360.91
2363.25
2365.56
2367.83
2370.08
2372.3
2374.49
2376.65
2378.78
2380.88
2382.95
2385
2387.02
2389.01
2390.97
2392.91
2394.82
2396.71
2398.57
2400.41
2402.22
2404.01
2405.77
2407.51
2409.23
2410.92
2412.6
2414.25
2415.88
2417.48
2419.07
2420.64
2422.18
2423.71
2425.22
2426.7
2428.17
2429.62
2431.06
2432.47
2433.87
2435.25
2436.61
2437.95
2439.28
2440.6
2441.89
2443.18
2444.44
2445.69
2446.93
2448.16
2449.37
2450.56
2451.75
2452.92
2454.08
2455.23
2456.37
2457.49
2458.61
2459.71
2460.81
2461.89
2462.95
2464
2465.02
2466.02
2467.01
2467.98
2468.93
2469.87
2470.79
2471.69
2472.57
2473.44
2474.29
2475.12
2475.94
2476.73
2308.04
2311.49
2315.18
2318.48
2321.58
2324.68
2327.79
2330.85
2333.87
2336.86
2339.81
2342.73
2345.61
2348.46
2351.28
2354.05
2356.8
2359.52
2362.2
2364.84
2367.46
2370.04
2372.59
2375.11
2377.6
2380.05
2382.48
2384.87
2387.23
2389.56
2391.87
2394.14
2396.38
2398.59
2400.78
2402.94
2405.06
2407.16
2409.23
2411.27
2413.29
2415.28
2417.25
2419.18
2421.09
2422.98
2424.84
2426.68
2428.49
2430.28
2432.04
2433.78
2435.5
2437.2
2438.87
2440.52
2442.15
2443.75
2445.34
2446.91
2448.45
2449.98
2451.48
2452.97
2454.44
2455.89
2457.31
2458.73
2460.12
2461.49
2462.85
2464.19
2465.52
2466.83
2468.12
2469.4
2470.66
2471.91
2473.14
2474.36
2475.56
2476.75
2477.93
2479.09
2480.24
2481.38
2482.51
2483.63
2484.73
2485.81
2486.87
2487.91
2488.92
2489.92
2490.9
2491.86
2492.8
2493.72
2494.62
2495.5
2496.37
2497.21
2498.03
2498.84
2499.62
2500.39
2501.13
2501.86
2502.57
2323.24
2326.57
2330.13
2333.34
2336.36
2339.38
2342.39
2345.37
2348.3
2351.2
2354.06
2356.89
2359.68
2362.44
2365.16
2367.85
2370.51
2373.13
2375.72
2378.27
2380.8
2383.29
2385.74
2388.17
2390.56
2392.92
2395.25
2397.55
2399.81
2402.05
2404.25
2406.43
2408.57
2410.68
2412.77
2414.83
2416.86
2418.86
2420.83
2422.78
2424.7
2426.6
2428.47
2430.31
2432.14
2433.94
2435.72
2437.47
2439.21
2440.92
2442.61
2444.28
2445.94
2447.57
2449.18
2450.78
2452.35
2453.91
2455.45
2456.98
2458.48
2459.97
2461.45
2462.91
2464.35
2465.78
2467.19
2468.59
2469.97
2471.34
2472.7
2474.04
2475.37
2476.68
2477.98
2479.27
2480.55
2481.82
2483.07
2484.31
2485.54
2486.76
2487.96
2489.16
2490.35
2491.52
2492.69
2493.84
2494.98
2496.09
2497.18
2498.25
2499.31
2500.34
2501.35
2502.34
2503.31
2504.27
2505.2
2506.11
2507.01
2507.88
2508.73
2509.57
2510.38
2511.17
2511.95
2512.7
2513.44
2514.15
2514.85
2515.52
2338.99
2342.37
2345.9
2349.11
2352.17
2355.21
2358.26
2361.27
2364.24
2367.17
2370.07
2372.93
2375.77
2378.57
2381.33
2384.07
2386.77
2389.44
2392.07
2394.67
2397.24
2399.78
2402.29
2404.76
2407.21
2409.62
2412
2414.35
2416.67
2418.96
2421.22
2423.45
2425.65
2427.83
2429.97
2432.09
2434.18
2436.24
2438.27
2440.27
2442.25
2444.2
2446.13
2448.02
2449.89
2451.73
2453.55
2455.34
2457.11
2458.84
2460.56
2462.25
2463.91
2465.55
2467.16
2468.75
2470.32
2471.87
2473.39
2474.89
2476.37
2477.82
2479.25
2480.67
2482.06
2483.43
2484.78
2486.11
2487.43
2488.72
2490
2491.26
2492.5
2493.72
2494.93
2496.13
2497.3
2498.47
2499.62
2500.75
2501.88
2502.99
2504.09
2505.17
2506.25
2507.31
2508.37
2509.4
2510.41
2511.4
2512.37
2513.33
2514.27
2515.19
2516.09
2516.97
2517.83
2518.68
2519.51
2520.32
2521.11
2521.89
2522.65
2523.39
2524.11
2524.81
2525.5
2526.17
2526.82
2527.46
2528.08
2528.68
2529.26
2529.83
2530.38
2351.07
2354.33
2357.73
2360.84
2363.8
2366.75
2369.7
2372.61
2375.47
2378.3
2381.1
2383.86
2386.59
2389.28
2391.95
2394.58
2397.18
2399.74
2402.28
2404.78
2407.26
2409.7
2412.11
2414.5
2416.85
2419.18
2421.48
2423.75
2426
2428.21
2430.41
2432.57
2434.71
2436.83
2438.92
2440.99
2443.03
2445.05
2447.04
2449.01
2450.96
2452.88
2454.78
2456.66
2458.52
2460.35
2462.16
2463.94
2465.71
2467.45
2469.17
2470.87
2472.55
2474.2
2475.84
2477.46
2479.05
2480.63
2482.19
2483.73
2485.24
2486.74
2488.23
2489.69
2491.14
2492.57
2493.98
2495.38
2496.76
2498.12
2499.47
2500.8
2502.12
2503.42
2504.7
2505.98
2507.23
2508.48
2509.71
2510.93
2512.14
2513.33
2514.52
2515.69
2516.85
2518
2519.13
2520.23
2521.31
2522.37
2523.41
2524.43
2525.43
2526.41
2527.36
2528.3
2529.22
2530.11
2530.98
2531.84
2532.67
2533.48
2534.28
2535.05
2535.8
2536.53
2537.25
2537.94
2538.61
2539.27
2539.91
2540.53
2541.13
2541.72
2542.29
2542.84
2543.38
2543.89
2363.24
2366.52
2369.88
2372.98
2375.95
2378.91
2381.86
2384.78
2387.65
2390.49
2393.3
2396.07