/*--------------------------------*- C++ -*----------------------------------*\
  =========                 |
  \\      /  F ield         | OpenFOAM: The Open Source CFD Toolbox
   \\    /   O peration     | Website:  https://openfoam.org
    \\  /    A nd           | Version:  7
     \\/     M anipulation  |
\*---------------------------------------------------------------------------*/
FoamFile
{
    version     2.0;
    format      ascii;
    class       surfaceScalarField;
    location    "1";
    object      phi;
}
// * * * * * * * * * * * * * * * * * * * * * * * * * * * * * * * * * * * * * //

dimensions      [0 3 -1 0 0 0 0];

internalField   nonuniform List<scalar> 
152148
(
-0.0105276
-5.22422
4.9805
-0.00896957
-4.98205
4.9789
-0.00917869
-0.00939307
4.7491
-0.0075006
-4.75056
4.74759
-0.00767122
4.74605
-0.00784637
4.74446
-0.00802569
-0.00820918
4.5292
-0.0061029
-4.5306
4.52777
-0.00623709
4.52629
-0.00637457
4.52479
-0.00651511
4.52323
-0.00665882
-0.00680593
4.31917
-0.00478073
-4.32049
4.31781
-0.00488005
4.31642
-0.00498195
4.31499
-0.00508582
4.31353
-0.00519199
4.31202
-0.00530048
4.31048
-0.00541135
-0.00552452
4.11921
-0.00352917
-4.12046
4.11793
-0.00359569
4.11661
-0.00366369
4.11526
-0.00373267
4.11387
-0.00380296
4.11244
-0.00387452
4.11098
-0.00394749
4.10947
-0.00402177
-0.00409731
3.92838
-0.002348
-3.92956
3.92717
-0.00238306
3.92592
-0.00241874
3.92465
-0.00245462
3.92333
-0.00249077
3.92199
-0.0025274
3.92061
-0.00256425
3.91919
-0.00260154
3.91773
-0.00263895
3.91623
-0.00267669
-0.0027146
3.7464
-0.00123319
-3.74751
3.74526
-0.00123864
3.74408
-0.00124371
3.74288
-0.00124801
3.74164
-0.00125186
3.74036
-0.00125504
3.73906
-0.00125772
3.73772
-0.00125963
3.73634
-0.00126084
3.73492
-0.00126121
3.73347
-0.00126083
-0.00125932
3.57295
-0.000178414
-3.574
3.57186
-0.000155685
3.57075
-0.000131756
3.56961
-0.000106224
3.56844
-7.9374e-05
3.56723
-5.09885e-05
3.566
-2.11051e-05
3.56473
1.03224e-05
3.56342
4.35191e-05
3.56208
7.85099e-05
3.56071
0.000115403
3.55929
0.000154284
0.000195283
3.40744
0.000820819
-3.40844
3.40641
0.000870115
3.40536
0.000921479
3.40428
0.000975264
3.40317
0.00103119
3.40203
0.00108947
3.40086
0.00115014
3.39965
0.0012132
3.39842
0.00127906
3.39715
0.00134749
3.39585
0.00141893
3.39451
0.00149328
3.39313
0.0015709
0.00165175
3.24954
0.0017597
-3.25048
3.24858
0.00183442
3.24759
0.00191196
3.24657
0.00199268
3.24552
0.00207632
3.24445
0.00216316
3.24335
0.00225305
3.24221
0.0023464
3.24105
0.00244321
3.23985
0.00254366
3.23862
0.00264801
3.23736
0.00275629
3.23606
0.00286873
3.23473
0.00298553
0.00310681
3.09897
0.00264747
-3.09985
3.09805
0.00274614
3.09712
0.0028484
3.09616
0.00295453
3.09517
0.0030645
3.09415
0.0031782
3.09311
0.00329597
3.09204
0.00341776
3.09094
0.00354411
3.08981
0.00367476
3.08865
0.00381028
3.08745
0.00395064
3.08622
0.00409619
3.08496
0.00424689
3.08367
0.00440334
0.00456552
2.95517
0.00348463
-2.95601
2.95431
0.00360591
2.95343
0.0037315
2.95252
0.00386167
2.95159
0.00399633
2.95064
0.00413551
2.94965
0.00427946
2.94864
0.00442827
2.9476
0.00458232
2.94654
0.00474163
2.94544
0.00490663
2.94431
0.00507728
2.94316
0.0052541
2.94197
0.00543702
2.94074
0.00562663
2.93949
0.00582297
0.0060272
2.81808
0.00427441
-2.81887
2.81726
0.00441704
2.81643
0.00456469
2.81558
0.00471758
2.8147
0.00487566
2.81379
0.00503892
2.81287
0.00520768
2.81191
0.00538201
2.81093
0.00556237
2.80992
0.00574875
2.80889
0.00594164
2.80783
0.00614101
2.80673
0.00634743
2.80561
0.00656083
2.80445
0.00678186
2.80327
0.00701059
2.80205
0.00724826
0.0074953
2.68721
0.00501776
-2.68796
2.68645
0.00518056
2.68567
0.00534906
2.68486
0.00552341
2.68403
0.00570358
2.68318
0.00588963
2.68231
0.00608176
2.68141
0.00628028
2.68049
0.00648543
2.67954
0.00669746
2.67856
0.00691664
2.67756
0.00714325
2.67653
0.00737756
2.67547
0.0076199
2.67438
0.00787055
2.67326
0.00813003
2.67211
0.0083993
2.67093
0.00867904
0.00896966
2.56232
0.00571672
-2.56302
2.5616
0.00589853
2.56086
0.00608663
2.56011
0.00628122
2.55933
0.00648222
2.55853
0.0066897
2.55771
0.00690392
2.55686
0.00712518
2.55599
0.00735376
2.5551
0.00758992
2.55418
0.00783397
2.55324
0.0080862
2.55227
0.00834694
2.55128
0.00861648
2.55025
0.00889519
2.5492
0.00918364
2.54812
0.00948278
2.547
0.0097934
0.0101159
2.44314
0.0063734
-2.44379
2.44246
0.00657307
2.44177
0.00677961
2.44106
0.00699322
2.44032
0.00721379
2.43957
0.00744146
2.4388
0.00767643
2.43801
0.00791909
2.43719
0.0081697
2.43635
0.00842859
2.43549
0.00869603
2.4346
0.00897239
2.43369
0.00925798
2.43276
0.00955318
2.43179
0.00985832
2.4308
0.0101741
2.42979
0.0105014
2.42874
0.0108412
2.42766
0.0111938
0.0115596
2.32942
0.00699014
-2.33004
2.32879
0.00720654
2.32813
0.0074304
2.32747
0.00766185
2.32678
0.00790078
2.32607
0.0081474
2.32535
0.00840181
2.3246
0.0086646
2.32384
0.00893584
2.32305
0.00921612
2.32224
0.00950545
2.32141
0.00980458
2.32055
0.0101134
2.31967
0.0104328
2.31877
0.0107627
2.31784
0.0111042
2.31688
0.011458
2.3159
0.0118252
2.31489
0.0122061
2.31385
0.0126013
0.0130112
2.22091
0.00756855
-2.22149
2.22032
0.0078006
2.21971
0.00804066
2.21908
0.00828879
2.21844
0.00854492
2.21778
0.0088092
2.2171
0.0090819
2.2164
0.00936341
2.21568
0.00965408
2.21494
0.00995424
2.21418
0.0102642
2.2134
0.0105845
2.2126
0.0109153
2.21178
0.0112572
2.21093
0.0116105
2.21006
0.011976
2.20916
0.0123548
2.20824
0.0127477
2.20729
0.0131552
2.20631
0.0135779
0.0140163
2.1174
0.00811048
-2.11794
2.11684
0.00835711
2.11627
0.00861226
2.11568
0.00887594
2.11508
0.0091481
2.11446
0.00942884
2.11382
0.0097186
2.11317
0.0100176
2.1125
0.0103263
2.1118
0.010645
2.11109
0.0109743
2.11036
0.0113143
2.10961
0.0116657
2.10884
0.0120285
2.10805
0.0124037
2.10724
0.0127917
2.1064
0.0131938
2.10553
0.0136108
2.10464
0.0140433
2.10373
0.0144918
2.10279
0.0149569
0.0154394
2.01864
0.00861755
-2.01915
2.01812
0.00887769
2.01759
0.00914683
2.01704
0.00942495
2.01648
0.00971195
2.0159
0.010008
2.0153
0.0103135
2.01469
0.0106288
2.01406
0.0109543
2.01342
0.0112903
2.01275
0.0116374
2.01207
0.0119958
2.01137
0.0123662
2.01065
0.0127488
2.00991
0.0131442
2.00915
0.0135533
2.00837
0.0139771
2.00756
0.0144167
2.00673
0.0148725
2.00588
0.0153451
2.005
0.0158353
0.0163437
1.92443
0.00909121
-1.9249
1.92394
0.00936381
1.92344
0.00964586
1.92293
0.00993726
1.9224
0.010238
1.92186
0.0105482
1.92131
0.0108682
1.92074
0.0111985
1.92015
0.0115394
1.91955
0.0118915
1.91894
0.012255
1.9183
0.0126306
1.91765
0.0130184
1.91698
0.0134194
1.91629
0.0138335
1.91558
0.0142622
1.91485
0.0147063
1.9141
0.0151668
1.91333
0.0156444
1.91253
0.0161396
1.91172
0.0166531
1.91087
0.0171858
0.0177384
1.83449
0.00953152
-1.83493
1.83404
0.00981559
1.83358
0.0101095
1.8331
0.0104132
1.83261
0.0107265
1.83211
0.0110496
1.8316
0.011383
1.83107
0.0117272
1.83053
0.0120824
1.82997
0.0124492
1.8294
0.0128279
1.82881
0.0132192
1.8282
0.0136234
1.82758
0.014041
1.82694
0.0144727
1.82628
0.0149194
1.82561
0.0153822
1.82491
0.0158622
1.8242
0.0163599
1.82346
0.0168761
1.8227
0.0174115
1.82192
0.0179668
0.018543
1.74859
0.00993793
-1.74899
1.74817
0.0102325
1.74774
0.0105372
1.7473
0.010852
1.74685
0.0111768
1.74639
0.0115119
1.74592
0.0118576
1.74543
0.0122143
1.74493
0.0125826
1.74442
0.0129628
1.74389
0.0133556
1.74335
0.0137612
1.74279
0.0141804
1.74222
0.0146134
1.74163
0.0150613
1.74102
0.0155246
1.7404
0.0160047
1.73976
0.0165027
1.7391
0.0170192
1.73842
0.0175549
1.73772
0.0181105
1.737
0.018687
1.73626
0.0192852
0.0199061
1.6665
0.0103103
-1.66687
1.66611
0.0106143
1.66572
0.0109288
1.66532
0.0112537
1.66491
0.0115889
1.66449
0.0119347
1.66405
0.0122914
1.66361
0.0126596
1.66315
0.0130397
1.66268
0.0134322
1.6622
0.0138377
1.6617
0.0142564
1.66119
0.0146892
1.66067
0.0151364
1.66013
0.0155989
1.65958
0.0160775
1.65901
0.0165736
1.65843
0.0170881
1.65782
0.0176219
1.6572
0.0181756
1.65656
0.0187501
1.6559
0.0193462
1.65522
0.019965
0.0206073
1.58805
0.0106488
-1.58838
1.5877
0.0109612
1.58734
0.0112845
1.58698
0.0116184
1.58661
0.0119629
1.58622
0.0123182
1.58583
0.0126849
1.58542
0.0130633
1.58501
0.013454
1.58459
0.0138575
1.58415
0.0142743
1.5837
0.0147049
1.58324
0.01515
1.58277
0.01561
1.58228
0.0160858
1.58178
0.0165783
1.58126
0.0170888
1.58073
0.0176186
1.58019
0.0181682
1.57962
0.0187385
1.57904
0.0193303
1.57844
0.0199447
1.57783
0.0205826
0.021245
1.51309
0.0109537
-1.51339
1.51278
0.0112736
1.51246
0.0116045
1.51213
0.0119463
1.51179
0.012299
1.51145
0.0126627
1.5111
0.0130381
1.51073
0.0134256
1.51036
0.0138257
1.50998
0.0142389
1.50959
0.0146658
1.50919
0.0151069
1.50877
0.0155631
1.50835
0.0160345
1.50791
0.0165223
1.50746
0.0170273
1.507
0.0175509
1.50653
0.0180944
1.50604
0.0186585
1.50553
0.0192439
1.50501
0.0198517
1.50447
0.0204829
1.50391
0.0211385
1.50334
0.0218195
0.0225272
1.44149
0.0112258
-1.44176
1.44121
0.011552
1.44093
0.0118895
1.44063
0.0122381
1.44034
0.0125978
1.44003
0.0129688
1.43972
0.0133517
1.43939
0.013747
1.43906
0.0141552
1.43873
0.0145769
1.43838
0.0150126
1.43802
0.015463
1.43766
0.0159288
1.43728
0.0164103
1.4369
0.0169088
1.4365
0.0174249
1.43609
0.0179603
1.43567
0.0185161
1.43523
0.0190933
1.43478
0.0196926
1.43432
0.020315
1.43384
0.0209617
1.43335
0.0216337
1.43283
0.0223321
0.0230582
1.37311
0.0114659
-1.37335
1.37287
0.0117973
1.37262
0.0121403
1.37236
0.0124945
1.3721
0.0128599
1.37183
0.013237
1.37156
0.0136262
1.37128
0.014028
1.37099
0.0144431
1.37069
0.014872
1.37039
0.0153152
1.37008
0.0157735
1.36976
0.0162476
1.36943
0.016738
1.3691
0.0172458
1.36875
0.0177717
1.36839
0.0183175
1.36802
0.0188843
1.36764
0.0194733
1.36725
0.0200851
1.36685
0.0207209
1.36643
0.0213818
1.36599
0.0220689
1.36554
0.0227835
0.0235269
1.30783
0.0116743
-1.30804
1.30762
0.0120097
1.3074
0.0123571
1.30718
0.0127157
1.30696
0.0130858
1.30673
0.0134677
1.30649
0.0138619
1.30625
0.014269
1.306
0.0146897
1.30575
0.0151244
1.30549
0.0155738
1.30523
0.0160387
1.30495
0.0165199
1.30467
0.0170177
1.30439
0.0175335
1.30409
0.0180679
1.30379
0.0186229
1.30347
0.0191995
1.30314
0.0197989
1.30281
0.0204221
1.30246
0.02107
1.3021
0.0217439
1.30172
0.0224451
1.30133
0.0231748
1.30092
0.0239343
0.0247252
1.24551
0.0118514
-1.24569
1.24533
0.0121898
1.24515
0.0125403
1.24496
0.0129022
1.24477
0.0132756
1.24458
0.013661
1.24438
0.014059
1.24418
0.0144702
1.24398
0.0148951
1.24377
0.0153343
1.24355
0.0157887
1.24333
0.0162588
1.24311
0.0167456
1.24287
0.0172497
1.24264
0.0177723
1.24239
0.0183139
1.24214
0.0188768
1.24187
0.0194618
1.2416
0.0200706
1.24132
0.0207039
1.24103
0.0213628
1.24072
0.0220487
1.24041
0.0227628
1.24007
0.0235066
1.23973
0.0242815
0.025089
1.18602
0.0119972
-1.18617
1.18588
0.0123372
1.18573
0.0126897
1.18558
0.0130536
1.18542
0.0134292
1.18527
0.0138169
1.18511
0.0142174
1.18495
0.0146313
1.18478
0.0150591
1.18462
0.0155016
1.18445
0.0159595
1.18427
0.0164336
1.18409
0.0169248
1.18391
0.0174337
1.18372
0.0179619
1.18352
0.0185094
1.18332
0.0190792
1.18311
0.0196713
1.18289
0.0202883
1.18267
0.020931
1.18243
0.0215995
1.18218
0.022297
1.18192
0.0230226
1.18165
0.0237798
1.18136
0.0245696
0.0253927
1.12924
0.0121119
-1.12936
1.12913
0.0124524
1.12901
0.0128057
1.12889
0.0131704
1.12878
0.0135468
1.12866
0.0139356
1.12854
0.0143372
1.12842
0.0147524
1.12829
0.0151818
1.12817
0.0156261
1.12804
0.0160861
1.12791
0.0165627
1.12778
0.0170567
1.12765
0.0175692
1.12751
0.0181014
1.12736
0.018654
1.12721
0.019229
1.12705
0.0198287
1.12689
0.0204514
1.12672
0.0211046
1.12654
0.0217792
1.12635
0.0224898
1.12614
0.0232249
1.12593
0.0239933
1.1257
0.0247999
0.0256361
1.07504
0.0121949
-1.07512
1.07495
0.0125345
1.07487
0.0128875
1.07479
0.0132518
1.07471
0.0136281
1.07463
0.0140167
1.07455
0.0144184
1.07447
0.0148337
1.07438
0.0152635
1.0743
0.0157083
1.07422
0.0161691
1.07414
0.0166467
1.07405
0.0171421
1.07396
0.0176564
1.07387
0.0181913
1.07378
0.0187471
1.07368
0.0193265
1.07358
0.0199317
1.07347
0.0205573
1.07336
0.021223
1.07323
0.0219012
1.0731
0.0226253
1.07295
0.0233722
1.0728
0.0241457
1.07262
0.0249761
1.07244
0.02582
0.0267149
1.02329
0.0122476
-1.02334
1.02324
0.0125852
1.02319
0.0129366
1.02314
0.0132991
1.02309
0.0136738
1.02305
0.014061
1.02301
0.0144607
1.02297
0.0148746
1.02293
0.0153031
1.02289
0.0157471
1.02285
0.0162074
1.02281
0.0166847
1.02277
0.0171799
1.02274
0.0176956
1.0227
0.0182302
1.02265
0.0187909
1.02261
0.0193695
1.02256
0.0199824
1.02251
0.0206059
1.02245
0.0212869
1.02238
0.021968
1.02231
0.0226994
1.02221
0.0234653
1.02212
0.024238
1.022
0.025093
1.02187
0.0259515
0.0268511
0.973904
0.0122722
-0.973929
0.973885
0.0126048
0.973866
0.0129557
0.973852
0.0133132
0.973835
0.0136909
0.973822
0.0140735
0.973812
0.0144709
0.9738
0.0148869
0.973794
0.0153088
0.973792
0.0157488
0.973792
0.0162074
0.973794
0.0166831
0.973799
0.0171744
0.973805
0.0176906
0.973807
0.0182272
0.973814
0.018784
0.973821
0.0193625
0.973827
0.019977
0.973827
0.0206058
0.973833
0.0212805
0.973831
0.0219703
0.973832
0.0226985
0.973786
0.0235117
0.973732
0.024292
0.97367
0.0251548
0.97359
0.0260319
0.02693
0.926716
0.0122727
-0.926717
0.926717
0.0126037
0.926721
0.0129518
0.926729
0.0133058
0.926741
0.0136787
0.926758
0.0140561
0.926782
0.0144474
0.926811
0.0148575
0.926845
0.0152744
0.926885
0.0157093
0.926929
0.0161639
0.926975
0.0166366
0.927024
0.0171253
0.927078
0.0176367
0.927132
0.0181729
0.927192
0.0187249
0.927248
0.0193063
0.927308
0.019917
0.927356
0.0205573
0.927414
0.0212228
0.927459
0.0219251
0.9275
0.0226582
0.927532
0.0234796
0.927547
0.0242767
0.927567
0.0251355
0.927554
0.0260439
0.027009
0.881674
0.0122434
-0.881645
0.881707
0.0125714
0.881747
0.0129113
0.881791
0.0132615
0.881847
0.0136229
0.881907
0.0139964
0.881972
0.0143824
0.882048
0.0147819
0.882126
0.0151965
0.882207
0.0156276
0.882296
0.0160757
0.88239
0.0165425
0.882485
0.01703
0.882585
0.0175368
0.882691
0.0180671
0.882795
0.018621
0.882899
0.0192015
0.883005
0.0198112
0.883109
0.0204531
0.883207
0.021125
0.883298
0.0218346
0.883376
0.0225803
0.88348
0.0233752
0.883564
0.0241933
0.88364
0.0250594
0.88369
0.0259935
0.883707
0.0269922
0.0279875
0.838641
0.0121844
-0.838582
0.838708
0.0125047
0.838783
0.0128355
0.838868
0.013177
0.838961
0.0135299
0.839062
0.0138953
0.83917
0.0142742
0.839285
0.0146673
0.839406
0.0150755
0.839533
0.0155003
0.839666
0.0159424
0.839806
0.0164034
0.839951
0.0168843
0.840101
0.0173871
0.840255
0.0179131
0.840411
0.0184651
0.840568
0.0190445
0.840725
0.0196542
0.840882
0.0202964
0.841034
0.0209731
0.841182
0.0216867
0.841322
0.0224395
0.841463
0.023235
0.841584
0.0240718
0.841689
0.0249545
0.841789
0.0258933
0.841908
0.0268735
0.0279122
0.79756
0.0120927
-0.797468
0.79766
0.0124041
0.79777
0.0127256
0.797889
0.013058
0.798017
0.0134018
0.798155
0.0137581
0.798301
0.0141279
0.798456
0.0145122
0.798619
0.0149121
0.798791
0.0153288
0.79897
0.0157637
0.799155
0.016218
0.799347
0.0166924
0.799544
0.0171896
0.799747
0.0177107
0.799954
0.0182578
0.800164
0.0188347
0.800375
0.0194434
0.800585
0.0200864
0.800792
0.0207659
0.800994
0.0214842
0.80119
0.0222438
0.801378
0.0230473
0.801553
0.0238966
0.801713
0.0247944
0.801861
0.0257455
0.801986
0.0267484
0.0278105
0.758327
0.0119723
-0.758206
0.758457
0.0122737
0.758598
0.0125846
0.75875
0.0129063
0.758912
0.0132394
0.759085
0.013585
0.759269
0.013944
0.759463
0.0143177
0.759668
0.0147073
0.759883
0.015114
0.760107
0.0155393
0.760341
0.0159849
0.760581
0.0164522
0.760827
0.0169431
0.761079
0.0174592
0.761335
0.0180016
0.761597
0.0185734
0.761861
0.0191791
0.762125
0.0198224
0.762386
0.0205044
0.762643
0.0212274
0.762893
0.0219941
0.763133
0.0228073
0.76336
0.0236695
0.763571
0.0245833
0.763765
0.0255519
0.763937
0.0265766
0.0276627
0.720837
0.0118239
-0.720688
0.720997
0.0121137
0.721169
0.0124125
0.721354
0.0127219
0.72155
0.0130425
0.72176
0.0133756
0.721982
0.0137222
0.722216
0.0140835
0.722462
0.014461
0.72272
0.014856
0.722989
0.0152701
0.723269
0.0157051
0.723559
0.0161628
0.723857
0.0166451
0.724161
0.0171546
0.72447
0.017693
0.724782
0.0182611
0.725097
0.0188644
0.725414
0.0195054
0.725729
0.0201893
0.72604
0.0209168
0.726343
0.0216911
0.726635
0.0225147
0.726914
0.0233906
0.727176
0.0243215
0.727418
0.0253102
0.727636
0.0263589
0.0274707
0.685012
0.0116485
-0.684837
0.685201
0.0119251
0.685403
0.01221
0.68562
0.0125051
0.685851
0.0128114
0.686096
0.0131301
0.686356
0.0134623
0.68663
0.0138094
0.686919
0.0141729
0.68722
0.0145545
0.687535
0.0149557
0.687861
0.0153785
0.688199
0.0158249
0.688547
0.0162972
0.688904
0.0167978
0.689268
0.0173292
0.689635
0.0178941
0.690003
0.0184964
0.690371
0.0191374
0.690739
0.0198212
0.691104
0.020552
0.69146
0.0213346
0.691805
0.0221701
0.692134
0.0230612
0.692445
0.0240109
0.692733
0.025022
0.692995
0.0260972
0.027239
0.650768
0.011446
-0.650566
0.650986
0.0117075
0.651219
0.0119767
0.651469
0.0122557
0.651734
0.0125457
0.652017
0.012848
0.652315
0.0131639
0.65263
0.0134949
0.65296
0.0138426
0.653306
0.0142087
0.653666
0.0145953
0.65404
0.0150043
0.654427
0.015438
0.654826
0.0158988
0.655234
0.0163895
0.655651
0.0169128
0.656073
0.0174716
0.656499
0.0180706
0.656923
0.0187132
0.657344
0.0194003
0.657759
0.0201368
0.658168
0.0209258
0.658564
0.0217739
0.658944
0.0226817
0.659303
0.0236522
0.659636
0.0246883
0.659941
0.0257927
0.660212
0.0269679
0.0282162
0.618045
0.0112171
-0.617816
0.61829
0.0114618
0.618554
0.0117133
0.618835
0.0119741
0.619135
0.0122457
0.619454
0.0125296
0.619791
0.0128271
0.620145
0.0131399
0.620518
0.0134697
0.620908
0.0138186
0.621315
0.0141886
0.621737
0.014582
0.622174
0.0150014
0.622624
0.0154494
0.623084
0.0159289
0.623554
0.0164432
0.62403
0.0169952
0.624511
0.0175896
0.624993
0.018231
0.625471
0.018923
0.625939
0.0196684
0.626397
0.0204678
0.626844
0.0213269
0.627273
0.022253
0.627679
0.0232466
0.628057
0.0243102
0.628403
0.0254467
0.628712
0.0266584
0.0279476
0.586774
0.0109621
-0.586519
0.587048
0.0111881
0.587341
0.0114199
0.587655
0.0116605
0.587989
0.0119116
0.588344
0.0121749
0.588719
0.0124519
0.589115
0.0127444
0.58953
0.0130543
0.589965
0.0133838
0.590418
0.0137354
0.590888
0.0141114
0.591375
0.0145148
0.591876
0.0149485
0.592389
0.0154157
0.592912
0.01592
0.593443
0.0164646
0.593978
0.0170545
0.594514
0.0176947
0.595048
0.0183892
0.595574
0.0191423
0.596085
0.0199567
0.59658
0.0208325
0.597057
0.0217759
0.597508
0.0227953
0.597929
0.0238894
0.598315
0.0250612
0.59866
0.0263131
0.0276473
0.556901
0.0106814
-0.55662
0.557202
0.0108868
0.557525
0.0110969
0.557871
0.0113151
0.558239
0.0115436
0.558629
0.0117842
0.559043
0.0120385
0.559479
0.0123084
0.559937
0.0125963
0.560416
0.0129044
0.560916
0.0132355
0.561435
0.0135923
0.561972
0.013978
0.562525
0.0143959
0.563091
0.0148496
0.563668
0.0153429
0.564253
0.0158796
0.564843
0.0164648
0.565433
0.0171041
0.566021
0.0178018
0.566601
0.0185622
0.567168
0.0193898
0.567713
0.0202875
0.568235
0.0212541
0.56873
0.0223003
0.569191
0.0234277
0.569614
0.0246382
0.569994
0.0259337
0.0273166
0.528373
0.0103757
-0.528067
0.528701
0.0105586
0.529053
0.0107448
0.52943
0.0109385
0.529831
0.0111421
0.530258
0.0113577
0.530709
0.0115871
0.531185
0.0118323
0.531686
0.0120958
0.53221
0.0123804
0.532756
0.012689
0.533324
0.0130247
0.533911
0.0133909
0.534516
0.0137915
0.535135
0.0142304
0.535766
0.0147118
0.536406
0.0152399
0.53705
0.0158204
0.537695
0.0164593
0.538336
0.0171612
0.538967
0.0179305
0.539585
0.018772
0.540183
0.0196902
0.540749
0.0206878
0.541287
0.0217619
0.541788
0.0229269
0.542246
0.02418
0.542657
0.0255233
0.0269585
0.501142
0.0100458
-0.500812
0.501497
0.0102041
0.501877
0.0103644
0.502284
0.0105313
0.502719
0.0107078
0.50318
0.0108961
0.503669
0.0110981
0.504185
0.0113163
0.504728
0.0115533
0.505296
0.0118121
0.505889
0.012096
0.506505
0.0124086
0.507142
0.0127537
0.507799
0.0131354
0.508471
0.0135582
0.509156
0.0140267
0.50985
0.0145458
0.510549
0.0151216
0.511248
0.0157605
0.511941
0.0164676
0.512624
0.0172476
0.513291
0.0181053
0.513936
0.0190455
0.51455
0.0200731
0.515127
0.0211847
0.515664
0.0223899
0.516155
0.0236896
0.516593
0.0250853
0.0265776
0.475165
0.00969263
-0.474812
0.475545
0.00982434
0.475953
0.00995654
0.47639
0.0100943
0.476856
0.0102414
0.477352
0.0104001
0.477878
0.0105724
0.478433
0.0107611
0.479017
0.0109692
0.479629
0.0112
0.480268
0.0114571
0.480932
0.0117446
0.481619
0.0120666
0.482327
0.0124279
0.483051
0.0128333
0.48379
0.0132881
0.484538
0.0137976
0.485291
0.0143688
0.486043
0.0150084
0.486789
0.0157218
0.487522
0.0165143
0.488237
0.0173908
0.488927
0.0183558
0.489585
0.0194144
0.4902
0.0205697
0.490771
0.021819
0.491291
0.02317
0.491753
0.0246231
0.0261781
0.4504
0.00931756
-0.450025
0.450803
0.0094206
0.451238
0.00952248
0.451703
0.00962888
0.4522
0.00974411
0.45273
0.00987069
0.453291
0.0100109
0.453885
0.0101677
0.454509
0.0103445
0.455165
0.0105448
0.455849
0.010773
0.45656
0.0110332
0.457296
0.0113303
0.458055
0.0116695
0.458832
0.0120563
0.459623
0.0124965
0.460425
0.0129959
0.461231
0.0135627
0.462036
0.0142038
0.462833
0.014925
0.463615
0.0157319
0.464376
0.0166298
0.465109
0.0176234
0.465806
0.0187174
0.466459
0.0199164
0.467062
0.0212157
0.467608
0.0226238
0.468092
0.02414
0.0257638
0.426807
0.00892204
-0.426412
0.427233
0.00899432
0.427692
0.0090636
0.428185
0.00913627
0.428712
0.00921721
0.429273
0.00930924
0.429869
0.00941485
0.4305
0.00953724
0.431164
0.00968015
0.431861
0.00984772
0.43259
0.0100445
0.433348
0.0102753
0.434132
0.0105457
0.434941
0.0108611
0.435769
0.011228
0.436613
0.0116526
0.437467
0.0121418
0.438325
0.0127046
0.439181
0.013348
0.440028
0.0140785
0.440858
0.0149019
0.441663
0.015824
0.442437
0.0168498
0.443171
0.0179834
0.443858
0.0192288
0.44449
0.0205839
0.44506
0.0220544
0.445561
0.0236389
0.0253374
0.404349
0.00850767
-0.403934
0.404796
0.00854709
0.405278
0.00858152
0.405796
0.00861807
0.406351
0.0086623
0.406943
0.00871726
0.407572
0.00878571
0.408239
0.00887112
0.408941
0.00897766
0.409679
0.00910993
0.41045
0.00927298
0.411253
0.00947228
0.412085
0.00971379
0.412943
0.0100039
0.413821
0.0103494
0.414716
0.0107577
0.415621
0.0112366
0.41653
0.0117958
0.417436
0.0124426
0.41833
0.0131839
0.419206
0.0140263
0.420054
0.0149756
0.420867
0.0160371
0.421636
0.0172146
0.422354
0.0185104
0.42301
0.0199276
0.423599
0.0214659
0.424114
0.0231237
0.424548
0.0249036
0.0267862
0.382987
0.00807634
-0.382556
0.383454
0.00808077
0.383957
0.00807809
0.384499
0.00807615
0.38508
0.0080812
0.385701
0.0080966
0.386361
0.0081253
0.387061
0.00817114
0.3878
0.00823875
0.388577
0.00833321
0.38939
0.00846012
0.390237
0.00862561
0.391114
0.00883627
0.392019
0.0090992
0.392946
0.00942215
0.39389
0.00981321
0.394845
0.0102819
0.395803
0.010838
0.396756
0.0114892
0.397697
0.0122432
0.398616
0.0131069
0.399505
0.0140867
0.400355
0.0151877
0.401155
0.0164142
0.401901
0.0177649
0.402578
0.0192504
0.403182
0.0208622
0.403707
0.0225985
0.404145
0.0244649
0.0264215
0.362686
0.00763007
-0.362239
0.363169
0.00759744
0.363692
0.00755542
0.364255
0.00751264
0.36486
0.00747609
0.365508
0.0074494
0.366197
0.00743578
0.366929
0.00743946
0.367702
0.00746551
0.368516
0.00751959
0.369368
0.0076079
0.370256
0.00773724
0.371178
0.00791497
0.372128
0.00814901
0.373102
0.00844798
0.374094
0.00882129
0.375096
0.00927986
0.376101
0.0098332
0.3771
0.01049
0.378085
0.0112585
0.379046
0.0121461
0.379973
0.0131597
0.380856
0.0143042
0.381687
0.0155831
0.382453
0.0169991
0.383147
0.018556
0.383763
0.0202471
0.384293
0.0220681
0.384735
0.0240226
0.0260295
0.343405
0.00717089
-0.342945
0.343903
0.00709919
0.344443
0.00701567
0.345025
0.00692979
0.345652
0.00684928
0.346324
0.00677806
0.34704
0.00671959
0.347801
0.0066785
0.348606
0.00666037
0.349454
0.00667146
0.350343
0.00671863
0.351271
0.00680945
0.352234
0.00695208
0.353228
0.00715538
0.354247
0.00742905
0.355284
0.00778431
0.356331
0.00823252
0.357381
0.00878361
0.358423
0.0094471
0.35945
0.010232
0.36045
0.0111463
0.361412
0.0121974
0.362327
0.0133895
0.363185
0.0147247
0.36397
0.0162144
0.364677
0.0178485
0.365299
0.0196254
0.365828
0.0215396
0.366261
0.0235891
0.0256568
0.325106
0.00670134
-0.324637
0.325617
0.00658866
0.326171
0.0064616
0.32677
0.00633039
0.327416
0.0062036
0.328109
0.00608542
0.328849
0.00597956
0.329636
0.00589107
0.33047
0.00582609
0.33135
0.00579151
0.332274
0.00579492
0.333239
0.00584472
0.334241
0.00594999
0.335276
0.00612066
0.336337
0.00636795
0.337416
0.00670469
0.338507
0.00714221
0.339599
0.00769142
0.340683
0.00836273
0.341749
0.00916592
0.342786
0.0101098
0.343781
0.0112021
0.344726
0.0124448
0.345604
0.013847
0.346407
0.0154111
0.347125
0.0171302
0.34775
0.0190002
0.348272
0.0210178
0.348687
0.023174
0.0253693
0.307746
0.00622271
-0.307267
0.308267
0.00606746
0.308834
0.00589512
0.309447
0.00571671
0.310109
0.0055416
0.310821
0.00537422
0.311582
0.00521853
0.312393
0.00508003
0.313253
0.0049655
0.314162
0.0048825
0.315118
0.00483947
0.316117
0.00484566
0.317155
0.00491124
0.318229
0.00504735
0.319329
0.00526742
0.320449
0.00558472
0.32158
0.00601119
0.322713
0.00655883
0.323837
0.00723909
0.32494
0.00806259
0.326011
0.00903886
0.327037
0.0101757
0.328007
0.0114748
0.328905
0.0129496
0.329723
0.0145928
0.33045
0.0164036
0.331076
0.0183736
0.331591
0.0205028
0.331998
0.0227675
0.0251348
0.29129
0.00573891
-0.290806
0.291818
0.00553973
0.292392
0.00532037
0.293016
0.00509264
0.293691
0.0048669
0.294417
0.00464788
0.295196
0.00443974
0.296028
0.00424849
0.296912
0.00408156
0.297847
0.0039473
0.298831
0.00385498
0.299862
0.00381489
0.300935
0.00383836
0.302044
0.0039383
0.303182
0.00412989
0.30434
0.00442664
0.305509
0.0048416
0.30668
0.005388
0.307841
0.00607834
0.308979
0.00692413
0.310083
0.00793544
0.311139
0.00911997
0.31213
0.0104838
0.313047
0.0120324
0.313877
0.0137622
0.31461
0.0156711
0.315236
0.0177473
0.315745
0.0199935
0.316154
0.0223593
0.0249745
0.275678
-0.275187
0.00524771
0.276213
0.00500475
0.276796
0.00473782
0.277429
0.00445963
0.278114
0.00418161
0.278853
0.00390877
0.279647
0.00364568
0.280497
0.00339896
0.281402
0.00317678
0.282361
0.00298832
0.283372
0.00284383
0.284432
0.00275473
0.285537
0.00273372
0.286679
0.0027959
0.287852
0.0029573
0.289046
0.00323236
0.290252
0.00363537
0.291459
0.00418083
0.292655
0.00488239
0.293827
0.00575255
0.29496
0.00680186
0.296043
0.00803763
0.297055
0.00947111
0.297989
0.0110993
0.298829
0.0129216
0.299565
0.0149353
0.300189
0.0171237
0.300692
0.0194901
0.301116
0.0219357
0.0249363
29.9511
-0.723811
-30.017
29.9207
-0.726752
29.9014
-0.723916
29.878
-0.714749
29.8469
-0.704565
29.8154
-0.697447
29.7865
-0.691155
29.7534
-0.683063
29.7289
-0.678625
29.6843
-0.665771
29.6681
-0.66675
29.6147
-0.649266
29.6034
-0.65403
29.5636
-0.638807
29.5502
-0.63892
29.5273
-0.629524
29.5064
-0.623081
29.4888
-0.617575
29.4673
-0.60949
29.4505
-0.604746
29.431
-0.597162
29.4145
-0.591782
29.3971
-0.584751
29.3806
-0.578834
29.3643
-0.572396
29.3489
-0.566328
29.3326
-0.559636
29.319
-0.554112
29.3013
-0.54673
29.291
-0.542612
29.2727
-0.534053
29.2646
-0.530829
29.2477
-0.522102
29.2408
-0.519093
29.2264
-0.510856
29.2198
-0.507309
29.2078
-0.499756
29.2014
-0.49579
29.1913
-0.489002
29.1852
-0.484736
29.1767
-0.478358
29.1708
-0.47382
29.1635
-0.467869
29.1579
-0.463189
29.1517
-0.457634
29.1467
-0.452837
29.1412
-0.447404
29.1368
-0.442615
29.1321
-0.437321
29.1283
-0.432642
29.1243
-0.427496
29.1214
-0.422848
29.118
-0.417701
29.1158
-0.413216
29.113
-0.408042
-0.403687
35.8599
-0.668786
-35.915
35.8032
-0.670006
35.7375
-0.658262
35.6737
-0.651012
35.6146
-0.645455
35.5577
-0.640594
35.5008
-0.634239
35.4458
-0.628086
35.3893
-0.622167
35.3402
-0.616686
35.2826
-0.609245
35.2384
-0.605048
35.1818
-0.597485
35.1361
-0.593216
35.082
-0.584866
35.0339
-0.581451
34.9843
-0.573486
34.9359
-0.569226
34.8877
-0.561389
34.8402
-0.557275
34.7929
-0.549925
34.7463
-0.545152
34.6994
-0.537948
34.6538
-0.533246
34.608
-0.526631
34.5633
-0.521665
34.5186
-0.514951
34.4745
-0.510028
34.4316
-0.50385
34.388
-0.499015
34.3466
-0.492664
34.3035
-0.487753
34.263
-0.481676
34.221
-0.477048
34.1814
-0.471279
34.1403
-0.466207
34.1013
-0.460708
34.061
-0.455565
34.0226
-0.450534
33.9833
-0.445437
33.9452
-0.440292
33.9066
-0.435186
33.8688
-0.430123
33.8308
-0.425212
33.7936
-0.420343
33.7562
-0.415487
33.7193
-0.410471
33.6825
-0.405795
33.6459
-0.40076
33.6098
-0.396567
33.5737
-0.391365
33.5392
-0.388329
33.5036
-0.382112
33.4695
-0.379111
33.4357
-0.374277
33.4029
-0.370781
-0.366502
29.4674
-0.649281
-29.4869
29.4374
-0.640053
29.4176
-0.638454
29.3984
-0.631798
29.379
-0.62605
29.3584
-0.620059
29.3379
-0.613689
29.3171
-0.607372
29.2979
-0.602913
29.2769
-0.59579
29.2581
-0.590439
29.2366
-0.583576
29.2186
-0.57949
29.1968
-0.571458
29.1793
-0.567375
29.1581
-0.560234
29.1409
-0.556335
29.1202
-0.548525
29.1032
-0.544444
29.0834
-0.537537
29.0671
-0.533647
29.0484
-0.526413
29.0324
-0.521976
29.0147
-0.515527
28.9993
-0.511318
28.9825
-0.50483
28.9676
-0.500092
28.9514
-0.493841
28.9372
-0.489632
28.9218
-0.483684
28.9081
-0.478938
28.8934
-0.473077
28.8801
-0.468354
28.8663
-0.463202
28.8534
-0.458472
28.8402
-0.452973
28.8278
-0.448278
28.8151
-0.442915
28.8031
-0.438544
28.7912
-0.433485
28.7796
-0.428695
28.768
-0.423667
28.7569
-0.419007
28.7458
-0.414119
28.7353
-0.409793
28.7246
-0.404842
28.7145
-0.400384
28.7042
-0.395469
28.6946
-0.391148
28.6843
-0.386329
28.6754
-0.382411
28.6636
-0.376567
28.6555
-0.374024
28.6452
-0.368861
28.6361
-0.365109
28.6257
-0.36039
28.6158
-0.356719
28.6052
-0.352263
-0.348618
30.9661
-0.594186
-31.0212
30.915
-0.588965
30.8656
-0.589065
30.8154
-0.581637
30.7661
-0.576804
30.7189
-0.572779
30.6723
-0.567175
30.6255
-0.560598
30.5825
-0.559929
30.5388
-0.552045
30.4945
-0.546199
30.4522
-0.541262
30.4083
-0.535646
30.3681
-0.531205
30.3281
-0.527403
30.2887
-0.52084
30.2479
-0.515505
30.2092
-0.509882
30.1692
-0.504432
30.1316
-0.499907
30.0925
-0.494564
30.0552
-0.489185
30.0168
-0.483513
29.9801
-0.478858
29.9436
-0.474777
29.9082
-0.469513
29.8742
-0.466086
29.8396
-0.459241
29.8042
-0.454171
29.7708
-0.450294
29.7359
-0.444117
29.7024
-0.439582
29.6686
-0.434548
29.6362
-0.430743
29.6036
-0.425911
29.5716
-0.42098
29.5408
-0.41752
29.5095
-0.411572
29.478