/*--------------------------------*- C++ -*----------------------------------*\
  =========                 |
  \\      /  F ield         | OpenFOAM: The Open Source CFD Toolbox
   \\    /   O peration     | Website:  https://openfoam.org
    \\  /    A nd           | Version:  7
     \\/     M anipulation  |
\*---------------------------------------------------------------------------*/
FoamFile
{
    version     2.0;
    format      ascii;
    class       volScalarField;
    location    "1";
    object      R;
}
// * * * * * * * * * * * * * * * * * * * * * * * * * * * * * * * * * * * * * //

dimensions      [0 2 -1 0 0 0 0];

internalField   nonuniform List<scalar> 
76363
(
0.151052
0.151041
0.151056
0.151071
0.151007
0.151022
0.151037
0.151053
0.151068
0.150987
0.151002
0.151017
0.151033
0.151049
0.151065
0.150958
0.150973
0.150988
0.151004
0.151019
0.151035
0.151051
0.151068
0.150931
0.150947
0.150962
0.150977
0.150993
0.151009
0.151025
0.151042
0.151059
0.150903
0.150918
0.150933
0.150948
0.150964
0.15098
0.150997
0.151013
0.15103
0.151048
0.151065
0.150875
0.15089
0.150906
0.150921
0.150937
0.150953
0.15097
0.150987
0.151004
0.151021
0.151039
0.151057
0.150853
0.150868
0.150883
0.150899
0.150915
0.150931
0.150948
0.150965
0.150982
0.150999
0.151017
0.151035
0.151054
0.150832
0.150847
0.150863
0.150879
0.150895
0.150911
0.150928
0.150945
0.150962
0.15098
0.150998
0.151016
0.151035
0.151054
0.150808
0.150823
0.150839
0.150855
0.150871
0.150888
0.150905
0.150922
0.15094
0.150958
0.150976
0.150995
0.151014
0.151033
0.151053
0.15079
0.150806
0.150822
0.150838
0.150854
0.150871
0.150888
0.150905
0.150923
0.150941
0.150959
0.150978
0.150997
0.151017
0.151037
0.151057
0.150776
0.150792
0.150808
0.150824
0.15084
0.150857
0.150874
0.150892
0.150909
0.150927
0.150946
0.150965
0.150984
0.151003
0.151023
0.151044
0.151065
0.150766
0.150782
0.150798
0.150815
0.150831
0.150848
0.150866
0.150883
0.150901
0.150919
0.150938
0.150957
0.150976
0.150995
0.151016
0.151036
0.151057
0.151079
0.15076
0.150776
0.150792
0.150809
0.150826
0.150843
0.15086
0.150877
0.150895
0.150914
0.150932
0.150951
0.15097
0.15099
0.15101
0.151031
0.151052
0.151074
0.151097
0.150759
0.150775
0.150791
0.150808
0.150824
0.150841
0.150859
0.150876
0.150894
0.150912
0.150931
0.15095
0.150969
0.150989
0.151009
0.15103
0.151051
0.151073
0.151096
0.150765
0.150781
0.150797
0.150813
0.15083
0.150847
0.150864
0.150882
0.1509
0.150918
0.150937
0.150956
0.150975
0.150994
0.151015
0.151035
0.151056
0.151078
0.151101
0.151124
0.150782
0.150798
0.150814
0.15083
0.150847
0.150864
0.150881
0.150899
0.150916
0.150934
0.150953
0.150972
0.150991
0.15101
0.15103
0.151051
0.151072
0.151093
0.151116
0.151139
0.151163
0.150811
0.150827
0.150843
0.15086
0.150876
0.150893
0.15091
0.150927
0.150945
0.150963
0.150981
0.151
0.151019
0.151038
0.151058
0.151078
0.151099
0.15112
0.151142
0.151165
0.151189
0.150857
0.150873
0.150889
0.150905
0.150921
0.150938
0.150954
0.150972
0.150989
0.151007
0.151025
0.151043
0.151062
0.151081
0.1511
0.15112
0.151141
0.151162
0.151184
0.151206
0.15123
0.151253
0.150921
0.150937
0.150952
0.150968
0.150984
0.151
0.151017
0.151034
0.151051
0.151068
0.151086
0.151104
0.151122
0.151141
0.15116
0.15118
0.1512
0.151221
0.151242
0.151264
0.151287
0.151311
0.151005
0.15102
0.151035
0.151051
0.151066
0.151082
0.151098
0.151115
0.151132
0.151149
0.151166
0.151183
0.151201
0.15122
0.151239
0.151258
0.151278
0.151298
0.151319
0.151341
0.151363
0.151386
0.151409
0.151108
0.151122
0.151137
0.151152
0.151168
0.151183
0.151199
0.151215
0.151231
0.151248
0.151265
0.151282
0.151299
0.151317
0.151336
0.151354
0.151374
0.151394
0.151414
0.151435
0.151457
0.151479
0.151502
0.151232
0.151246
0.15126
0.151275
0.15129
0.151305
0.15132
0.151336
0.151351
0.151368
0.151384
0.151401
0.151418
0.151435
0.151453
0.151471
0.15149
0.151509
0.151529
0.15155
0.151571
0.151593
0.151615
0.151638
0.151381
0.151395
0.151409
0.151423
0.151437
0.151451
0.151466
0.151481
0.151496
0.151511
0.151527
0.151543
0.15156
0.151576
0.151593
0.151611
0.151629
0.151648
0.151667
0.151687
0.151707
0.151728
0.15175
0.151772
0.151561
0.151574
0.151587
0.1516
0.151614
0.151627
0.151641
0.151655
0.15167
0.151684
0.151699
0.151714
0.15173
0.151746
0.151762
0.151779
0.151796
0.151814
0.151832
0.151851
0.151871
0.151891
0.151912
0.151933
0.151774
0.151786
0.151798
0.15181
0.151823
0.151836
0.151848
0.151862
0.151875
0.151889
0.151902
0.151917
0.151931
0.151946
0.151961
0.151977
0.151993
0.15201
0.152028
0.152045
0.152064
0.152083
0.152103
0.152124
0.152145
0.152021
0.152032
0.152043
0.152054
0.152066
0.152077
0.152089
0.152101
0.152113
0.152126
0.152138
0.152151
0.152165
0.152178
0.152193
0.152207
0.152222
0.152238
0.152254
0.152271
0.152289
0.152307
0.152326
0.152345
0.152365
0.1523
0.15231
0.15232
0.15233
0.15234
0.152351
0.152361
0.152372
0.152383
0.152394
0.152406
0.152418
0.15243
0.152442
0.152455
0.152468
0.152482
0.152497
0.152512
0.152527
0.152544
0.15256
0.152578
0.152596
0.152616
0.15261
0.152618
0.152627
0.152636
0.152645
0.152654
0.152663
0.152672
0.152682
0.152692
0.152702
0.152713
0.152724
0.152735
0.152746
0.152758
0.152771
0.152784
0.152798
0.152812
0.152828
0.152843
0.15286
0.152877
0.152895
0.152914
0.152946
0.152953
0.152961
0.152968
0.152976
0.152983
0.152991
0.152999
0.153008
0.153016
0.153025
0.153034
0.153044
0.153054
0.153064
0.153075
0.153087
0.153098
0.153111
0.153124
0.153138
0.153153
0.153168
0.153184
0.153201
0.153219
0.153307
0.153313
0.153319
0.153325
0.153331
0.153338
0.153344
0.153351
0.153358
0.153365
0.153373
0.153381
0.153389
0.153398
0.153407
0.153416
0.153426
0.153437
0.153448
0.153461
0.153473
0.153487
0.153501
0.153517
0.153533
0.15355
0.153692
0.153696
0.153701
0.153706
0.15371
0.153715
0.15372
0.153726
0.153731
0.153737
0.153743
0.15375
0.153757
0.153764
0.153772
0.153781
0.153789
0.153799
0.153809
0.15382
0.153832
0.153845
0.153858
0.153873
0.153888
0.153904
0.154099
0.154102
0.154105
0.154108
0.154111
0.154115
0.154118
0.154122
0.154126
0.154131
0.154135
0.154141
0.154146
0.154152
0.154158
0.154166
0.154173
0.154182
0.154191
0.154201
0.154211
0.154223
0.154236
0.154249
0.154264
0.15428
0.154297
0.154526
0.154527
0.154528
0.154529
0.15453
0.154532
0.154533
0.154535
0.154538
0.15454
0.154543
0.154547
0.154551
0.154556
0.15456
0.154566
0.154573
0.15458
0.154588
0.154597
0.154607
0.154618
0.15463
0.154643
0.154657
0.154672
0.154688
0.15495
0.154949
0.154946
0.154946
0.154946
0.154947
0.154948
0.154949
0.15495
0.154952
0.154955
0.154957
0.154961
0.154965
0.15497
0.154975
0.154981
0.154988
0.154996
0.155005
0.155014
0.155025
0.155037
0.15505
0.155065
0.155081
0.155098
0.155345
0.155335
0.15533
0.155331
0.155334
0.155337
0.155343
0.155347
0.155352
0.155357
0.155363
0.155369
0.155375
0.155382
0.155389
0.155396
0.155404
0.155413
0.155423
0.155433
0.155445
0.155458
0.155472
0.155486
0.155501
0.155517
0.155535
0.155795
0.155803
0.155812
0.15582
0.155827
0.155831
0.155834
0.155838
0.155841
0.155845
0.15585
0.155855
0.155861
0.155867
0.155875
0.155882
0.15589
0.155899
0.155909
0.155919
0.15593
0.155943
0.155956
0.155971
0.155987
0.156006
0.156024
0.15604
0.156412
0.156445
0.156471
0.15648
0.15648
0.156478
0.156475
0.156472
0.156469
0.156467
0.156466
0.156465
0.156465
0.156466
0.156468
0.15647
0.156474
0.156479
0.156485
0.156491
0.156499
0.156508
0.156519
0.156529
0.156542
0.156555
0.156571
0.156589
0.157202
0.157196
0.157192
0.157187
0.157181
0.157175
0.15717
0.157164
0.157159
0.157154
0.15715
0.157146
0.157142
0.157138
0.157136
0.157134
0.157133
0.157132
0.157133
0.157134
0.157137
0.157141
0.157146
0.157153
0.15716
0.15717
0.157179
0.157191
0.157965
0.157952
0.157939
0.157926
0.157913
0.157902
0.157891
0.15788
0.15787
0.157861
0.157852
0.157844
0.157837
0.15783
0.157823
0.157818
0.157813
0.157808
0.157805
0.157803
0.157801
0.157801
0.157801
0.157803
0.157806
0.157811
0.157815
0.157823
0.15851
0.158509
0.158507
0.158504
0.158501
0.158498
0.158494
0.158489
0.158485
0.15848
0.158475
0.15847
0.158465
0.15846
0.158456
0.158451
0.158447
0.158443
0.15844
0.158437
0.158435
0.158434
0.158433
0.158433
0.158433
0.158435
0.158437
0.158442
0.158979
0.158982
0.158985
0.158988
0.158991
0.158993
0.158995
0.158996
0.158998
0.158999
0.158999
0.158999
0.158999
0.158999
0.158999
0.158999
0.158998
0.158998
0.158997
0.158997
0.158997
0.158997
0.158998
0.158999
0.159
0.159002
0.159004
0.159008
0.159374
0.159381
0.159388
0.159394
0.159401
0.159407
0.159413
0.159419
0.159424
0.15943
0.159435
0.159439
0.159444
0.159448
0.159452
0.159455
0.159459
0.159462
0.159465
0.159468
0.159471
0.159473
0.159476
0.15948
0.159483
0.159487
0.15949
0.159494
0.159498
0.159685
0.159695
0.159704
0.159713
0.159723
0.159732
0.159741
0.15975
0.159758
0.159767
0.159775
0.159783
0.159791
0.159798
0.159805
0.159812
0.159819
0.159825
0.159831
0.159837
0.159842
0.159847
0.159852
0.159857
0.159862
0.159868
0.159872
0.159878
0.159883
0.159883
0.159895
0.159907
0.159919
0.159931
0.159943
0.159955
0.159967
0.159978
0.159989
0.16
0.160011
0.160022
0.160032
0.160042
0.160051
0.16006
0.160069
0.160078
0.160086
0.160093
0.1601
0.160107
0.160113
0.16012
0.160126
0.160132
0.160138
0.160144
0.15994
0.159954
0.159969
0.159983
0.159997
0.160012
0.160026
0.16004
0.160055
0.160068
0.160082
0.160096
0.160109
0.160122
0.160134
0.160146
0.160157
0.160168
0.160179
0.160188
0.160198
0.160207
0.160214
0.160222
0.160229
0.160236
0.160242
0.160248
0.160254
0.159825
0.159842
0.159859
0.159877
0.159895
0.159912
0.15993
0.159947
0.159964
0.159981
0.159997
0.160014
0.160029
0.160045
0.160059
0.160073
0.160087
0.1601
0.160112
0.160123
0.160134
0.160143
0.160152
0.16016
0.160168
0.160175
0.160181
0.160187
0.160192
0.159505
0.159527
0.159549
0.159571
0.159593
0.159615
0.159637
0.159658
0.159679
0.1597
0.15972
0.159739
0.159758
0.159776
0.159793
0.15981
0.159825
0.15984
0.159853
0.159866
0.159877
0.159888
0.159897
0.159905
0.159912
0.159919
0.159924
0.159928
0.159932
0.158965
0.158991
0.159018
0.159045
0.159072
0.159098
0.159124
0.15915
0.159175
0.159199
0.159222
0.159244
0.159266
0.159286
0.159305
0.159323
0.15934
0.159355
0.159369
0.159382
0.159393
0.159402
0.159411
0.159418
0.159423
0.159426
0.159428
0.159429
0.159429
0.158198
0.158229
0.15826
0.158291
0.158322
0.158352
0.158382
0.15841
0.158438
0.158464
0.158489
0.158513
0.158536
0.158557
0.158576
0.158594
0.15861
0.158624
0.158636
0.158646
0.158654
0.158661
0.158665
0.158667
0.158667
0.158664
0.15866
0.158655
0.158647
0.157204
0.157237
0.157272
0.157306
0.157339
0.157371
0.157402
0.157432
0.15746
0.157486
0.157511
0.157534
0.157555
0.157574
0.157591
0.157605
0.157617
0.157626
0.157633
0.157637
0.157638
0.157636
0.157631
0.157623
0.157614
0.157599
0.157586
0.157567
0.157552
0.155983
0.156017
0.156052
0.156087
0.15612
0.156151
0.156181
0.156209
0.156234
0.156258
0.156279
0.156297
0.156312
0.156325
0.156335
0.156341
0.156345
0.156345
0.156341
0.156331
0.156319
0.1563
0.156282
0.156255
0.156232
0.1562
0.156173
0.156139
0.156107
0.156072
0.154535
0.154567
0.154601
0.154633
0.154662
0.154689
0.154714
0.154736
0.154755
0.154771
0.154784
0.154793
0.154798
0.1548
0.154798
0.15479
0.154776
0.154756
0.154733
0.154702
0.154671
0.154629
0.154591
0.154542
0.154498
0.154445
0.154395
0.15434
0.154286
0.154229
0.152862
0.152889
0.152917
0.152943
0.152965
0.152983
0.152999
0.153011
0.153018
0.153023
0.153023
0.153016
0.153003
0.152983
0.152957
0.152925
0.152888
0.152842
0.152795
0.152735
0.152679
0.152609
0.152544
0.152467
0.152394
0.152314
0.152234
0.152151
0.152068
0.151985
0.150966
0.150984
0.151002
0.151017
0.151026
0.151031
0.151033
0.15103
0.15102
0.151002
0.150976
0.150944
0.150905
0.150859
0.150805
0.150743
0.150676
0.150597
0.150519
0.150425
0.150336
0.150233
0.150132
0.150023
0.149914
0.149799
0.149684
0.149568
0.149449
0.149343
0.148846
0.148852
0.148857
0.148856
0.148848
0.148832
0.148808
0.148778
0.148741
0.148696
0.148643
0.148581
0.148511
0.148431
0.148344
0.148245
0.148143
0.148025
0.147909
0.147778
0.147648
0.147507
0.147366
0.147217
0.147066
0.146913
0.146758
0.146606
0.146448
0.146329
0.146497
0.146484
0.146467
0.146443
0.146411
0.146371
0.146321
0.146263
0.146196
0.146119
0.146033
0.145937
0.14583
0.145713
0.145587
0.145447
0.145304
0.145144
0.144986
0.144812
0.144638
0.144454
0.144267
0.144075
0.14388
0.143685
0.14349
0.143299
0.143106
0.142935
0.143937
0.143898
0.143854
0.143802
0.143741
0.143671
0.143591
0.143502
0.143401
0.14329
0.143167
0.143032
0.142887
0.142727
0.142561
0.142376
0.14219
0.141986
0.141782
0.141563
0.141341
0.141111
0.140877
0.140639
0.1404
0.140163
0.139928
0.139702
0.139476
0.139276
0.141168
0.141101
0.141028
0.140947
0.140856
0.140755
0.140643
0.14052
0.140384
0.140236
0.140076
0.139901
0.139715
0.139513
0.139304
0.139074
0.138843
0.138593
0.138342
0.138076
0.137807
0.137529
0.137248
0.136965
0.136684
0.136407
0.136135
0.135878
0.135628
0.135409
0.159261
0.159191
0.159122
0.159057
0.158992
0.158924
0.158856
0.158803
0.158756
0.158715
0.158671
0.158633
0.158591
0.158548
0.158503
0.15846
0.158419
0.158382
0.15835
0.158321
0.158295
0.158271
0.158249
0.158229
0.15821
0.158191
0.158173
0.158154
0.158136
0.158116
0.158096
0.158075
0.158056
0.158037
0.15802
0.158004
0.157989
0.157977
0.157966
0.157957
0.157949
0.157942
0.157936
0.157931
0.157926
0.157922
0.157919
0.157915
0.157912
0.157909
0.157906
0.157903
0.157901
0.157898
0.157895
0.157893
0.152921
0.152951
0.152985
0.153014
0.153044
0.153065
0.153093
0.153113
0.15314
0.153167
0.153194
0.153222
0.15325
0.153278
0.153307
0.153334
0.153359
0.153384
0.153407
0.153428
0.153448
0.153466
0.153483
0.153499
0.153514
0.153527
0.153541
0.153553
0.153567
0.153578
0.153592
0.153604
0.153619
0.153632
0.153647
0.153662
0.153678
0.153693
0.153709
0.153725
0.153741
0.153756
0.153772
0.153786
0.153801
0.153816
0.15383
0.153844
0.153858
0.153873
0.153887
0.153901
0.153916
0.153931
0.153946
0.153961
0.153976
0.151204
0.151185
0.151157
0.151123
0.151094
0.151071
0.151051
0.151034
0.15102
0.151009
0.150999
0.150994
0.150995
0.151
0.15101
0.151022
0.151035
0.151047
0.151058
0.151071
0.151083
0.151096
0.15111
0.151124
0.151139
0.151155
0.151173
0.151193
0.151216
0.151241
0.151269
0.151298
0.151327
0.151355
0.151382
0.151408
0.151433
0.151457
0.15148
0.151501
0.151523
0.151543
0.151564
0.151583
0.151603
0.151623
0.151644
0.151665
0.151688
0.15171
0.151736
0.151765
0.151806
0.151848
0.151892
0.151939
0.151987
0.152035
0.152087
0.148272
0.148356
0.148445
0.14853
0.14861
0.148689
0.148764
0.148837
0.148912
0.148985
0.14906
0.149134
0.149208
0.149279
0.149348
0.149415
0.14948
0.149544
0.149605
0.149664
0.149722
0.149779
0.149834
0.149888
0.149942
0.149993
0.150046
0.150099
0.150153
0.150206
0.15026
0.150312
0.150363
0.150413
0.150461
0.150508
0.150554
0.150599
0.150643
0.150686
0.150729
0.150772
0.150813
0.150855
0.150895
0.150936
0.150975
0.151015
0.151054
0.151093
0.151133
0.15117
0.151205
0.151242
0.151279
0.151316
0.151352
0.15139
0.151426
0.151464
0.1515
0.149841
0.149862
0.149871
0.149882
0.1499
0.149922
0.149939
0.149955
0.149979
0.149988
0.150009
0.150032
0.150067
0.150108
0.150136
0.150157
0.150185
0.150221
0.150261
0.150295
0.150326
0.15036
0.150397
0.150437
0.150468
0.150488
0.150512
0.150519
0.15054
0.150555
0.150578
0.150608
0.150636
0.150664
0.150689
0.150716
0.15074
0.15076
0.150779
0.150801
0.150823
0.150853
0.150881
0.150916
0.150952
0.150988
0.151026
0.151063
0.151099
0.151134
0.151167
0.1512
0.151229
0.151257
0.151286
0.151315
0.151348
0.151382
0.151423
0.151462
0.151501
0.15154
0.148012
0.14808
0.148147
0.148211
0.148271
0.148331
0.148388
0.148448
0.148506
0.148567
0.148625
0.148687
0.148747
0.148812
0.148878
0.148946
0.149013
0.149076
0.149136
0.149191
0.149242
0.149289
0.149333
0.149375
0.149415
0.149456
0.149494
0.149535
0.149572
0.149615
0.149656
0.1497
0.149745
0.149791
0.149838
0.149884
0.149929
0.149973
0.150015
0.150058
0.150097
0.150138
0.150177
0.15021
0.150245
0.150278
0.150312
0.150345
0.150379
0.150413
0.150446
0.150478
0.15051
0.150541
0.150571
0.150601
0.15063
0.150659
0.150688
0.150717
0.150747
0.150776
0.150805
0.150834
0.148909
0.148939
0.148965
0.148998
0.149035
0.149068
0.1491
0.149134
0.149167
0.149203
0.149238
0.149275
0.149313
0.149349
0.149384
0.149417
0.14945
0.149482
0.149513
0.149545
0.149575
0.149607
0.149635
0.149663
0.149692
0.149719
0.149751
0.149784
0.149818
0.149854
0.149893
0.149928
0.149958
0.149992
0.150026
0.150061
0.1501
0.150131
0.150161
0.150195
0.150231
0.150262
0.150293
0.150326
0.150358
0.150396
0.15043
0.150458
0.150496
0.150532
0.150558
0.150589
0.150627
0.150656
0.150689
0.150721
0.150751
0.150781
0.150808
0.150831
0.150857
0.15088
0.150904
0.150929
0.150959
0.150989
0.148079
0.148124
0.148166
0.148213
0.148259
0.148308
0.148361
0.148414
0.148468
0.148522
0.148576
0.148628
0.148677
0.148724
0.148768
0.14881
0.14885
0.148889
0.148928
0.148965
0.149002
0.149039
0.149075
0.149111
0.149147
0.149184
0.149216
0.14925
0.149284
0.149319
0.149354
0.14939
0.149427
0.149463
0.149499
0.149536
0.149572
0.149608
0.149644
0.149679
0.149715
0.149749
0.149784
0.149818
0.149852
0.149885
0.149919
0.149952
0.149986
0.15002
0.150053
0.150087
0.15012
0.150154
0.150187
0.15022
0.150252
0.150284
0.150316
0.150347
0.150378
0.150408
0.150438
0.150467
0.150496
0.150524
0.150553
0.150581
0.148338
0.148378
0.148418
0.148457
0.148496
0.148535
0.148575
0.148616
0.148658
0.148701
0.148745
0.14879
0.148835
0.148878
0.14892
0.148961
0.149
0.149037
0.149073
0.149107
0.149141
0.149175
0.149208
0.149241
0.149273
0.149308
0.14934
0.149375
0.14941
0.149445
0.149481
0.149517
0.149552
0.149588
0.149623
0.149657
0.149691
0.149724
0.149757
0.149789
0.149822
0.149853
0.149885
0.149916
0.149947
0.149978
0.15001
0.15004
0.150072
0.150102
0.150133
0.150164
0.150194
0.150224
0.150254
0.150283
0.150312
0.15034
0.150368
0.150396
0.150423
0.150449
0.150475
0.150501
0.150526
0.150551
0.150576
0.1506
0.150624
0.150647
0.147983
0.148025
0.148069
0.148112
0.148156
0.148199
0.148243
0.148288
0.148332
0.148377
0.148422
0.148466
0.14851
0.148553
0.148594
0.148635
0.148674
0.148713
0.14875
0.148787
0.148823
0.148858
0.148893
0.148927
0.148962
0.148995
0.14903
0.149064
0.149099
0.149134
0.149169
0.149205
0.149241
0.149277
0.149313
0.149348
0.149384
0.149419
0.149454
0.149488
0.149523
0.149556
0.14959
0.149623
0.149657
0.14969
0.149723
0.149756
0.14979
0.149822
0.149855
0.149888
0.149921
0.149953
0.149985
0.150016
0.150047
0.150078
0.150109
0.150139
0.150168
0.150197
0.150226
0.150254
0.150282
0.150309
0.150336
0.150363
0.150389
0.150415
0.15044
0.150465
0.148055
0.148098
0.148141
0.148183
0.148225
0.148268
0.14831
0.148353
0.148396
0.148439
0.148482
0.148524
0.148566
0.148607
0.148647
0.148686
0.148724
0.148762
0.148798
0.148834
0.14887
0.148904
0.14894
0.148974
0.149009
0.149043
0.149079
0.149114
0.14915
0.149186
0.149223
0.149259
0.149296
0.149332
0.149368
0.149404
0.14944
0.149475
0.149509
0.149544
0.149577
0.149611
0.149644
0.149676
0.149709
0.149741
0.149773
0.149805
0.149837
0.149868
0.149899
0.14993
0.149961
0.149991
0.150021
0.15005
0.150079
0.150107
0.150135
0.150163
0.15019
0.150217
0.150243
0.150269
0.150294
0.150319
0.150344
0.150368
0.150392
0.150416
0.150439
0.150461
0.150484
0.150506
0.147895
0.147936
0.14798
0.148023
0.148065
0.148107
0.148149
0.148192
0.148234
0.148277
0.148319
0.148362
0.148404
0.148445
0.148485
0.148525
0.148564
0.148602
0.148639
0.148676
0.148712
0.148748
0.148784
0.148819
0.148855
0.14889
0.148926
0.148961
0.148998
0.149035
0.149072
0.149109
0.149147
0.149184
0.149222
0.149259
0.149296
0.149333
0.149369
0.149405
0.14944
0.149475
0.14951
0.149543
0.149577
0.14961
0.149643
0.149676
0.149708
0.14974
0.149771
0.149802
0.149833
0.149864
0.149894
0.149923
0.149953
0.149981
0.15001
0.150038
0.150065
0.150093
0.15012
0.150146
0.150172
0.150198
0.150223
0.150248
0.150273
0.150297
0.150321
0.150344
0.150368
0.150391
0.150413
0.150436
0.147942
0.147986
0.148028
0.148071
0.148112
0.148155
0.148196
0.148239
0.148281
0.148323
0.148365
0.148408
0.148449
0.148491
0.148532
0.148572
0.148611
0.14865
0.148688
0.148726
0.148763
0.148799
0.148835
0.148871
0.148907
0.148943
0.148978
0.149014
0.14905
0.149087
0.149123
0.14916
0.149197
0.149234
0.149271
0.149307
0.149344
0.149379
0.149415
0.14945
0.149484
0.149518
0.149551
0.149584
0.149616
0.149648
0.149679
0.14971
0.149741
0.149771
0.1498
0.149829
0.149858
0.149887
0.149915
0.149942
0.149969
0.149996
0.150023
0.150049
0.150074
0.1501
0.150125
0.150149
0.150174
0.150198
0.150221
0.150245
0.150268
0.150291
0.150313
0.150335
0.150357
0.150379
0.1504
0.150421
0.150442
0.150462
0.147871
0.147912
0.147955
0.147997
0.148038
0.148079
0.148121
0.148161
0.148204
0.148245
0.148287
0.148329
0.148372
0.148413
0.148455
0.148496
0.148537
0.148577
0.148616
0.148655
0.148693
0.148731
0.148768
0.148805
0.148842
0.148878
0.148915
0.148951
0.148988
0.149024
0.149061
0.149097
0.149134
0.149171
0.149208
0.149244
0.14928
0.149315
0.149351
0.149385
0.149419
0.149453
0.149486
0.149519
0.149551
0.149583
0.149614
0.149645
0.149675
0.149705
0.149734
0.149764
0.149793
0.149821
0.149849
0.149877
0.149904
0.149932
0.149958
0.149985
0.150011
0.150037
0.150063
0.150088
0.150113
0.150138
0.150162
0.150186
0.15021
0.150234
0.150257
0.15028
0.150303
0.150326
0.150348
0.15037
0.150392
0.150414
0.150435
0.150456
0.147913
0.147957
0.147999
0.148041
0.148082
0.148125
0.148166
0.148208
0.14825
0.148293
0.148335
0.148378
0.148421
0.148464
0.148506
0.148548
0.148589
0.14863
0.14867
0.148709
0.148748
0.148786
0.148824
0.148861
0.148897
0.148934
0.148969
0.149006
0.149041
0.149077
0.149112
0.149147
0.149182
0.149217
0.149252
0.149286
0.14932
0.149354
0.149387
0.149419
0.149452
0.149484
0.149515
0.149546
0.149576
0.149607
0.149636
0.149666
0.149695
0.149723
0.149752
0.14978
0.149807
0.149835
0.149862
0.149889
0.149915
0.149941
0.149967
0.149993
0.150018
0.150043
0.150068
0.150093
0.150117
0.150141
0.150165
0.150188
0.150211
0.150234
0.150257
0.15028
0.150302
0.150324
0.150346
0.150367
0.150388
0.150409
0.15043
0.150451
0.150471
0.150491
0.14789
0.147931
0.147974
0.148015
0.148057
0.148097
0.14814
0.148181
0.148224
0.148266
0.14831
0.148352
0.148396
0.148439
0.148481
0.148524
0.148566
0.148607
0.148647
0.148687
0.148726
0.148765
0.148802
0.14884
0.148876
0.148913
0.148948
0.148984
0.149019
0.149053
0.149088
0.149122
0.149156
0.149189
0.149223
0.149255
0.149288
0.149321
0.149353
0.149385
0.149416
0.149448
0.149479
0.14951
0.14954
0.14957
0.1496
0.14963
0.149659
0.149688
0.149717
0.149746
0.149774
0.149802
0.14983
0.149858
0.149885
0.149912
0.149939
0.149965
0.149991
0.150017
0.150043
0.150068
0.150093
0.150118
0.150143
0.150167
0.150191
0.150215
0.150239
0.150262
0.150285
0.150308
0.150331
0.150353
0.150375
0.150397
0.150419
0.15044
0.150461
0.150482
0.150503
0.150523
0.150543
0.14793
0.147974
0.148016
0.148059
0.148101
0.148144
0.148186
0.14823
0.148272
0.148316
0.148359
0.148403
0.148446
0.148489
0.148532
0.148574
0.148616
0.148657
0.148697
0.148736
0.148774
0.148812
0.148849
0.148885
0.148921
0.148956
0.14899
0.149024
0.149057
0.14909
0.149123
0.149155
0.149187
0.149219
0.14925
0.149282
0.149313
0.149344
0.149375
0.149406
0.149436
0.149467
0.149497
0.149527
0.149557
0.149587
0.149617
0.149646
0.149676
0.149705
0.149733
0.149762
0.14979
0.149818
0.149845
0.149873
0.1499
0.149926
0.149953
0.149979
0.150005
0.15003
0.150055
0.15008
0.150105
0.15013
0.150154
0.150178
0.150201
0.150225
0.150248
0.150271
0.150294
0.150316
0.150338
0.15036
0.150382
0.150403
0.150425
0.150446
0.150466
0.150486
0.150507
0.150526
0.150546
0.150565
0.150584
0.147932
0.147974
0.148018
0.14806
0.148103
0.148145
0.148189
0.148231
0.148275
0.148318
0.148361
0.148404
0.148446
0.148488
0.14853
0.148571
0.148612
0.148652
0.148691
0.14873
0.148767
0.148804
0.14884
0.148875
0.14891
0.148943
0.148977
0.14901
0.149042
0.149074
0.149106
0.149137
0.149169
0.1492
0.149231
0.149262
0.149294
0.149325
0.149356
0.149387
0.149419
0.14945
0.149481
0.149512
0.149543
0.149574
0.149604
0.149634
0.149665
0.149694
0.149724
0.149753
0.149782
0.149811
0.149839
0.149867
0.149894
0.149922
0.149949
0.149975
0.150002
0.150028
0.150054
0.150079
0.150104
0.150129
0.150154
0.150179
0.150203
0.150227
0.150251
0.150274
0.150297
0.15032
0.150343
0.150365
0.150387
0.150409
0.15043
0.150452
0.150472
0.150493
0.150513
0.150533
0.150553
0.150572
0.150592
0.15061
0.150629
0.150647
0.147969
0.148014
0.148058
0.148102
0.148145
0.148188
0.148231
0.148274
0.148316
0.148359
0.1484
0.148442
0.148484
0.148525
0.148566
0.148606
0.148645
0.148684
0.148721
0.148758
0.148794
0.14883
0.148864
0.148898
0.148931
0.148964
0.148996
0.149028
0.14906
0.149092
0.149122
0.149154
0.149185
0.149217
0.149248
0.14928
0.149311
0.149344
0.149376
0.149408
0.14944
0.149472
0.149503
0.149535
0.149566
0.149597
0.149628
0.149659
0.149688
0.149718
0.149747
0.149776
0.149805
0.149833
0.14986
0.149888
0.149915
0.149942
0.149968
0.149994
0.15002
0.150045
0.15007
0.150095
0.15012
0.150144
0.150168
0.150192
0.150215
0.150238
0.150261
0.150283
0.150306
0.150328
0.150349
0.150371
0.150392
0.150412
0.150433
0.150453
0.150473
0.150493
0.150512
0.150531
0.15055
0.150568
0.150587
0.150605
0.150622
0.15064
0.150657
0.150674
0.147978
0.148021
0.148066
0.148109
0.148151
0.148193
0.148236
0.148277
0.148319
0.14836
0.1484
0.148441
0.148481
0.148521
0.14856
0.148599
0.148637
0.148674
0.148711
0.148746
0.148781
0.148816
0.14885
0.148883
0.148916
0.148949
0.148982
0.149013
0.149046
0.149078
0.14911
0.149142
0.149175
0.149207
0.14924
0.149274
0.149307
0.14934
0.149374
0.149407
0.14944
0.149473
0.149506
0.149539
0.14957
0.149602
0.149633
0.149664
0.149694
0.149723
0.149753
0.149782
0.14981
0.149838
0.149866
0.149893
0.14992
0.149947
0.149973
0.149999
0.150024
0.15005
0.150075
0.1501
0.150124
0.150148
0.150172
0.150195
0.150219
0.150242
0.150264
0.150287
0.150309
0.15033
0.150352
0.150373
0.150394
0.150415
0.150435
0.150455
0.150475
0.150495
0.150514
0.150533
0.150552
0.15057
0.150588
0.150606
0.150624
0.150641
0.150659
0.150676
0.150692
0.150709
0.150725
0.148005
0.14805
0.148093
0.148136
0.148177
0.148218
0.148259
0.1483
0.148339
0.148379
0.148419
0.148458
0.148497
0.148535
0.148573
0.14861
0.148647
0.148683
0.148718
0.148753
0.148788
0.148822
0.148856
0.14889
0.148923
0.148957
0.14899
0.149024
0.149057
0.149091
0.149125
0.149159
0.149193
0.149228
0.149262
0.149296
0.14933
0.149364
0.149397
0.14943
0.149463
0.149495
0.149527
0.149558
0.149589
0.149619
0.149649
0.149679
0.149708
0.149736
0.149764
0.149792
0.14982
0.149847
0.149874
0.1499
0.149926
0.149952
0.149977
0.150003
0.150028
0.150052
0.150077
0.150101
0.150124
0.150148
0.150171
0.150194
0.150216
0.150238
0.15026
0.150282
0.150303
0.150324
0.150345
0.150365
0.150386
0.150405
0.150425
0.150444
0.150463
0.150482
0.1505
0.150519
0.150537
0.150554
0.150572
0.150589
0.150606
0.150623
0.150639
0.150656
0.150672
0.150688
0.150703
0.150719
0.150734
0.148008
0.14805
0.148093
0.148134
0.148175
0.148214
0.148254
0.148294
0.148333
0.148372
0.14841
0.148448
0.148486
0.148523
0.14856
0.148596
0.148632
0.148668
0.148703
0.148738
0.148773
0.148808
0.148843
0.148877
0.148913
0.148947
0.148983
0.149018
0.149054
0.14909
0.149126
0.149162
0.149198
0.149234
0.14927
0.149305
0.149339
0.149373
0.149406
0.149439
0.149471
0.149502
0.149533
0.149564
0.149594
0.149623
0.149652
0.149681
0.149709
0.149737
0.149765
0.149792
0.149819
0.149845
0.149872
0.149898
0.149923
0.149949
0.149974
0.149999
0.150024
0.150048
0.150072
0.150096
0.150119
0.150142
0.150165
0.150188
0.15021
0.150232
0.150253
0.150275
0.150296
0.150316
0.150337
0.150357
0.150377
0.150396
0.150416
0.150435
0.150453
0.150472
0.15049
0.150508
0.150526
0.150544
0.150561
0.150578
0.150595
0.150612
0.150628
0.150645
0.150661
0.150677
0.150692
0.150708
0.150723
0.150739
0.150754
0.150769
0.14802
0.148061
0.148102
0.148142
0.148182
0.148221
0.14826
0.148299
0.148337
0.148374
0.148412
0.148449
0.148486
0.148522
0.148558
0.148595
0.148631
0.148667
0.148703
0.148739
0.148775
0.148812
0.148849
0.148887
0.148924
0.148961
0.148999
0.149036
0.149073
0.14911
0.149147
0.149183
0.149218
0.149253
0.149287
0.14932
0.149353
0.149386
0.149417
0.149449
0.149479
0.14951
0.149539
0.149569
0.149597
0.149626
0.149654
0.149682
0.149709
0.149737
0.149763
0.14979
0.149816
0.149843
0.149868
0.149894
0.149919
0.149944
0.149969
0.149993
0.150017
0.150041
0.150064
0.150087
0.15011
0.150132
0.150154
0.150176
0.150198
0.150219
0.15024
0.15026
0.15028
0.1503
0.15032
0.15034
0.150359
0.150378
0.150396
0.150415
0.150433
0.150451
0.150469
0.150486
0.150504
0.150521
0.150538
0.150554
0.150571
0.150587
0.150603
0.150619
0.150635
0.15065
0.150666
0.150681
0.150697
0.150712
0.150727
0.150742
0.150757
0.150772
0.150786
0.148015
0.148055
0.148096
0.148136
0.148175
0.148213
0.148252
0.148289
0.148327
0.148364
0.148401
0.148437
0.148474
0.14851
0.148547
0.148582
0.14862
0.148656
0.148694
0.148732
0.148771
0.148809
0.148849
0.148888
0.148928
0.148967
0.149006
0.149045
0.149082
0.149119
0.149156
0.149191
0.149226
0.149259
0.149292
0.149324
0.149356
0.149387
0.149417
0.149447
0.149476
0.149505
0.149534
0.149562
0.14959
0.149617
0.149645
0.149672
0.149699
0.149725
0.149752
0.149778
0.149804
0.14983
0.149855
0.14988
0.149905
0.14993
0.149954
0.149978
0.150002
0.150025
0.150048
0.150071
0.150093
0.150115
0.150137
0.150158
0.15018
0.150201
0.150221
0.150241
0.150262
0.150281
0.150301
0.15032
0.150339
0.150358
0.150377
0.150395
0.150414
0.150432
0.150449
0.150467
0.150484
0.150501
0.150518
0.150535
0.150552
0.150568
0.150584
0.150601
0.150617
0.150633
0.150648
0.150664
0.15068
0.150696
0.150711
0.150727
0.150742
0.150757
0.150772
0.150788
0.150803
0.150818
0.148017
0.148057
0.148097
0.148136
0.148174
0.148213
0.14825
0.148288
0.148324
0.148361
0.148398
0.148435
0.148472
0.14851
0.148547
0.148586
0.148624
0.148664
0.148704
0.148744
0.148785
0.148825
0.148866
0.148906
0.148945
0.148984
0.149022
0.149059
0.149096
0.149131
0.149166
0.149199
0.149232
0.149265
0.149296
0.149327
0.149357
0.149387
0.149416
0.149445
0.149474
0.149502
0.149529
0.149557
0.149584
0.149611
0.149638
0.149665
0.149691
0.149718
0.149744
0.14977