/*--------------------------------*- C++ -*----------------------------------*\
  =========                 |
  \\      /  F ield         | OpenFOAM: The Open Source CFD Toolbox
   \\    /   O peration     | Website:  https://openfoam.org
    \\  /    A nd           | Version:  7
     \\/     M anipulation  |
\*---------------------------------------------------------------------------*/
FoamFile
{
    version     2.0;
    format      ascii;
    class       volVectorField;
    location    "1";
    object      U;
}
// * * * * * * * * * * * * * * * * * * * * * * * * * * * * * * * * * * * * * //

dimensions      [0 1 -1 0 0 0 0];

internalField   nonuniform List<vector> 
76363
(
(58.5669 -3.15109 -5.22166e-18)
(58.6506 -2.69902 -5.45239e-18)
(58.6319 -2.69596 6.69153e-18)
(58.6125 -2.69307 -6.69734e-24)
(58.7322 -2.29481 -5.69301e-18)
(58.7136 -2.29143 -6.68297e-24)
(58.6943 -2.28821 -7.36351e-18)
(58.6749 -2.28503 -2.28609e-21)
(58.655 -2.2819 7.75896e-18)
(58.8239 -1.89137 5.67243e-24)
(58.8052 -1.88719 -7.33518e-18)
(58.7858 -1.88314 1.54277e-17)
(58.7662 -1.87911 -7.93787e-18)
(58.7463 -1.87513 0)
(58.7258 -1.87121 0)
(58.9145 -1.52183 0)
(58.8958 -1.51713 9.49209e-27)
(58.8764 -1.51256 -7.70118e-24)
(58.8569 -1.508 4.1609e-18)
(58.837 -1.50348 -4.26004e-18)
(58.8165 -1.49902 4.36232e-18)
(58.7955 -1.4946 -8.93861e-18)
(58.7739 -1.49023 4.57959e-18)
(59.0107 -1.15936 6.17462e-24)
(58.992 -1.15405 4.01466e-18)
(58.9727 -1.14883 -4.23187e-18)
(58.9531 -1.1436 4.3587e-18)
(58.9332 -1.13839 -4.46206e-18)
(58.9127 -1.13323 0)
(58.8917 -1.1281 0)
(58.8701 -1.12299 9.14125e-24)
(58.848 -1.11789 0)
(59.1077 -0.82563 -6.45566e-24)
(59.0891 -0.819725 -4.19873e-18)
(59.0697 -0.813894 -1.309e-21)
(59.0503 -0.80804 4.56477e-18)
(59.0304 -0.802199 -8.92436e-24)
(59.01 -0.796382 9.1174e-24)
(58.9891 -0.790592 -4.90454e-18)
(58.9676 -0.784807 5.02431e-18)
(58.9455 -0.779032 5.14914e-18)
(58.9229 -0.773249 2.0491e-21)
(58.8997 -0.767471 2.19908e-21)
(59.2059 -0.50139 3.53027e-18)
(59.1874 -0.494875 4.39132e-18)
(59.1681 -0.488403 -4.64095e-18)
(59.1487 -0.48189 -9.11032e-24)
(59.1289 -0.475376 4.89666e-18)
(59.1086 -0.468872 -1.00184e-17)
(59.0877 -0.462385 -1.74255e-21)
(59.0662 -0.455886 5.2597e-18)
(59.0443 -0.449387 -1.02893e-23)
(59.0217 -0.442863 5.52104e-18)
(58.9985 -0.436332 -1.13096e-17)
(58.9747 -0.42976 1.15827e-17)
(59.3082 -0.202179 -7.03528e-24)
(59.2897 -0.195027 4.59162e-18)
(59.2704 -0.18789 -9.71917e-18)
(59.251 -0.180691 5.00611e-18)
(59.2313 -0.173475 5.12765e-18)
(59.211 -0.166256 -5.24448e-18)
(59.1901 -0.159042 -5.37668e-18)
(59.1687 -0.151799 5.50742e-18)
(59.1467 -0.144544 1.07515e-23)
(59.1241 -0.137247 1.10336e-23)
(59.101 -0.12993 5.92151e-18)
(59.0772 -0.122556 -6.06209e-18)
(59.0528 -0.115156 -2.36674e-23)
(59.41 0.0893257 -5.27421e-22)
(59.3915 0.0969862 4.79956e-18)
(59.3722 0.104664 0)
(59.3528 0.112425 -1.99955e-23)
(59.3331 0.120222 5.36597e-18)
(59.3128 0.128029 -5.49273e-18)
(59.292 0.135865 0)
(59.2706 0.143723 -1.10094e-23)
(59.2486 0.151635 -5.90846e-18)
(59.2261 0.159581 -2.33799e-21)
(59.203 0.167596 -2.48698e-21)
(59.1792 0.17565 1.26954e-17)
(59.1548 0.183789 -6.49934e-18)
(59.1298 0.191974 0)
(59.5128 0.359478 -4.01491e-18)
(59.4945 0.367716 5.01683e-18)
(59.4753 0.376001 -1.01432e-23)
(59.4561 0.384387 2.42884e-26)
(59.4365 0.392825 -5.61687e-18)
(59.4163 0.401285 5.74908e-18)
(59.3956 0.40979 -5.88868e-18)
(59.3744 0.418326 6.03341e-18)
(59.3525 0.426938 0)
(59.3301 0.435593 -1.20909e-23)
(59.3071 0.444338 -5.77479e-26)
(59.2834 0.453133 0)
(59.2591 0.462036 6.8044e-18)
(59.2342 0.470996 -6.96679e-18)
(59.2086 0.480075 7.14317e-18)
(59.6171 0.617828 -4.19062e-18)
(59.5988 0.626678 2.62248e-18)
(59.5797 0.635601 2.78683e-18)
(59.5605 0.644643 -2.87176e-18)
(59.5409 0.653748 1.12247e-23)
(59.5208 0.662885 -3.00956e-18)
(59.5001 0.67208 3.08058e-18)
(59.4789 0.681316 0)
(59.4571 0.690642 -3.23576e-18)
(59.4348 0.700024 3.31328e-18)
(59.4118 0.709511 -2.59199e-23)
(59.3882 0.719061 -3.47662e-18)
(59.364 0.728735 7.11846e-18)
(59.3391 0.738478 1.65726e-21)
(59.3136 0.74836 -3.73525e-18)
(59.2874 0.758345 3.82416e-18)
(59.7191 0.860673 2.18695e-18)
(59.7008 0.870041 -2.74059e-18)
(59.6818 0.879514 0)
(59.6627 0.889127 -3.0066e-18)
(59.6432 0.898819 3.07552e-18)
(59.6232 0.908556 3.14982e-18)
(59.6026 0.918368 -3.22398e-18)
(59.5815 0.928235 3.30523e-18)
(59.5598 0.938211 1.23775e-21)
(59.5376 0.948255 -3.46678e-18)
(59.5147 0.958424 0)
(59.4913 0.968669 2.77101e-23)
(59.4672 0.979059 0)
(59.4424 0.989535 -3.81559e-18)
(59.417 1.00017 3.9077e-18)
(59.3909 1.01093 -3.04703e-23)
(59.364 1.02198 0)
(59.8228 1.0913 8.69541e-24)
(59.8046 1.10118 1.09416e-23)
(59.7857 1.1112 3.05156e-18)
(59.7666 1.12138 -3.1456e-18)
(59.7473 1.13165 -3.21928e-18)
(59.7274 1.14198 3.29487e-18)
(59.7069 1.1524 -2.57403e-23)
(59.6859 1.16289 0)
(59.6643 1.1735 0)
(59.6421 1.1842 -1.38578e-23)
(59.6194 1.19504 0)
(59.596 1.20597 -2.9066e-23)
(59.572 1.21706 0)
(59.5474 1.22825 -7.84834e-26)
(59.522 1.23962 0)
(59.4961 1.25114 4.18361e-18)
(59.4693 1.26298 2.09621e-21)
(59.4417 1.27515 -4.19416e-18)
(59.9251 1.30842 -1.8175e-23)
(59.9071 1.31879 2.99405e-18)
(59.8883 1.32934 9.02239e-22)
(59.8693 1.34006 9.48005e-22)
(59.8501 1.35089 -3.36772e-18)
(59.8303 1.36179 -3.44864e-18)
(59.81 1.3728 3.52962e-18)
(59.7891 1.38388 0)
(59.7677 1.39511 1.41174e-23)
(59.7457 1.40644 0)
(59.723 1.41792 3.88697e-18)
(59.6998 1.4295 -3.97937e-18)
(59.6759 1.44127 -4.0766e-18)
(59.6515 1.45316 4.17321e-18)
(59.6263 1.46524 0)
(59.6005 1.47748 3.34164e-23)
(59.5738 1.49008 4.38927e-18)
(59.5464 1.50304 -4.38173e-18)
(59.5183 1.51639 -3.34821e-23)
(60.0263 1.51349 -2.48667e-18)
(60.0084 1.52434 3.1287e-18)
(59.9897 1.53539 -3.33961e-18)
(59.9709 1.54664 0)
(59.9518 1.55801 3.5268e-18)
(59.9322 1.56948 -3.60455e-18)
(59.912 1.58103 3.69545e-18)
(59.8913 1.59272 -3.78487e-18)
(59.87 1.60452 -1.48093e-23)
(59.8482 1.61648 0)
(59.8257 1.62855 -3.10595e-23)
(59.8027 1.64081 3.17156e-23)
(59.779 1.6532 -4.26391e-18)
(59.7547 1.66579 -1.96906e-21)
(59.7297 1.67853 4.46998e-18)
(59.704 1.69152 4.57479e-18)
(59.6776 1.70483 -4.56689e-18)
(59.6504 1.71857 4.58567e-18)
(59.6225 1.73271 -4.58619e-18)
(60.1263 1.70623 2.5957e-18)
(60.1086 1.71753 -6.53669e-18)
(60.09 1.72907 3.49369e-18)
(60.0714 1.74081 -3.60485e-18)
(60.0525 1.7527 7.37389e-18)
(60.0331 1.76468 -3.77351e-18)
(60.013 1.77679 0)
(59.9925 1.78901 3.95994e-18)
(59.9714 1.8014 -4.05446e-18)
(59.9498 1.81391 -4.15383e-18)
(59.9275 1.82661 8.50313e-18)
(59.9047 1.83945 -4.35317e-18)
(59.8812 1.8525 -9.01589e-26)
(59.8571 1.8657 0)
(59.8323 1.87914 0)
(59.8069 1.89278 -3.64044e-23)
(59.7807 1.90683 -4.7852e-18)
(59.7537 1.9213 -2.40801e-21)
(59.726 1.93621 4.79218e-18)
(59.6975 1.95154 -3.66341e-23)
(60.2256 1.88789 2.7092e-18)
(60.208 1.89961 -6.82898e-18)
(60.1896 1.91159 3.65463e-18)
(60.1712 1.92381 1.4365e-23)
(60.1524 1.93617 3.84289e-26)
(60.1332 1.94866 -3.94561e-18)
(60.1134 1.96124 4.04227e-18)
(60.093 1.97401 0)
(60.0721 1.9869 0)
(60.0507 1.99999 0)
(60.0287 2.01322 0)
(60.006 2.02667 6.9463e-23)
(59.9828 2.04027 -9.42621e-26)
(59.9589 2.05413 -4.77555e-18)
(59.9344 2.06815 4.88771e-18)
(59.9092 2.08248 7.63121e-23)
(59.8832 2.09719 0)
(59.8565 2.11237 3.81858e-23)
(59.829 2.12801 0)
(59.8008 2.1441 0)
(59.7717 2.16064 -3.82735e-23)
(60.3238 2.05853 -2.82732e-18)
(60.3064 2.07063 1.78297e-18)
(60.2882 2.08303 1.46019e-23)
(60.2699 2.09568 1.9724e-18)
(60.2514 2.10848 5.74389e-22)
(60.2323 2.12142 -4.12632e-18)
(60.2128 2.13447 2.11398e-18)
(60.1926 2.14771 1.65038e-23)
(60.172 2.1611 2.21852e-18)
(60.1508 2.1747 7.97294e-22)
(60.129 2.18845 -4.6503e-18)
(60.1066 2.20244 4.76006e-18)
(60.0837 2.2166 -4.87402e-18)
(60.06 2.23103 -1.02963e-21)
(60.0358 2.24564 5.11095e-18)
(60.0109 2.26059 -5.22852e-18)
(59.9852 2.27595 -1.23233e-21)
(59.9588 2.2918 2.60843e-18)
(59.9316 2.30814 0)
(59.9037 2.32495 -2.61444e-18)
(59.8749 2.34225 -1.35009e-21)
(60.4212 2.21887 1.47536e-18)
(60.404 2.2313 -1.86212e-18)
(60.386 2.24407 0)
(60.368 2.2571 -1.57165e-23)
(60.3497 2.27031 0)
(60.3309 2.28364 3.2945e-23)
(60.3115 2.29714 2.21054e-18)
(60.2917 2.31078 -2.26422e-18)
(60.2713 2.32465 -2.31965e-18)
(60.2504 2.33867 2.37443e-18)
(60.2288 2.35294 7.41739e-23)
(60.2068 2.36739 2.48917e-18)
(60.1841 2.38211 -2.54691e-18)
(60.1608 2.39703 -3.97432e-23)
(60.1368 2.41224 -2.67294e-18)
(60.1123 2.42774 2.722e-18)
(60.0869 2.44372 -2.72073e-18)
(60.0608 2.4602 2.72192e-18)
(60.034 2.4772 0)
(60.0065 2.4947 -2.72881e-18)
(59.9781 2.51272 5.45838e-18)
(59.9488 2.53125 -5.46178e-18)
(60.5179 2.36919 -1.53959e-18)
(60.5009 2.38191 -4.32011e-22)
(60.4831 2.395 2.0901e-18)
(60.4654 2.40837 1.6477e-23)
(60.4473 2.42192 -1.68099e-23)
(60.4288 2.4356 -2.25811e-18)
(60.4097 2.44948 2.31085e-18)
(60.3902 2.46351 1.80426e-23)
(60.3701 2.47777 2.42519e-18)
(60.3495 2.49221 -2.48226e-18)
(60.3282 2.50691 -3.88202e-23)
(60.3065 2.52181 -3.97445e-23)
(60.2841 2.537 -2.66312e-18)
(60.2612 2.5524 5.45155e-18)
(60.2376 2.56813 1.24163e-21)
(60.2134 2.58417 -2.84075e-18)
(60.1885 2.60071 -2.84023e-18)
(60.1628 2.61779 2.84112e-18)
(60.1364 2.63541 0)
(60.1092 2.65357 0)
(60.0813 2.67227 4.34001e-23)
(60.0525 2.69152 2.85039e-18)
(60.6134 2.51001 -1.00265e-22)
(60.5966 2.52296 4.06128e-18)
(60.5791 2.5363 -2.18546e-18)
(60.5616 2.54994 -2.25569e-18)
(60.5439 2.56377 4.6162e-18)
(60.5256 2.57777 6.43862e-22)
(60.5069 2.59193 6.80913e-22)
(60.4877 2.60631 -2.47598e-18)
(60.4679 2.62089 0)
(60.4476 2.63572 0)
(60.4268 2.65077 2.65708e-18)
(60.4054 2.66611 -5.43666e-18)
(60.3835 2.68167 2.78214e-18)
(60.3609 2.69756 -2.84903e-18)
(60.3378 2.7137 5.83121e-18)
(60.314 2.73027 -2.97344e-18)
(60.2895 2.74732 9.03491e-23)
(60.2643 2.76496 -2.96758e-18)
(60.2383 2.78318 2.96932e-18)
(60.2117 2.80195 0)
(60.1842 2.82131 -2.97269e-18)
(60.1559 2.84125 2.97219e-18)
(60.1268 2.86178 2.97529e-18)
(60.706 2.6416 0)
(60.6896 2.65472 2.12064e-18)
(60.6724 2.66825 -2.28489e-18)
(60.6553 2.6821 0)
(60.6379 2.69614 0)
(60.6201 2.71038 0)
(60.6017 2.72478 4.58771e-26)
(60.5829 2.73943 2.58905e-18)
(60.5635 2.75428 8.2121e-22)
(60.5437 2.76942 -5.42417e-18)
(60.5233 2.78478 2.77581e-18)
(60.5024 2.80046 -4.32874e-23)
(60.481 2.81639 -2.90785e-18)
(60.4589 2.83266 2.9753e-18)
(60.4363 2.84922 0)
(60.413 2.86623 0)
(60.389 2.88377 -4.72046e-23)
(60.3643 2.90192 -4.73085e-23)
(60.3389 2.92068 0)
(60.3128 2.94005 0)
(60.2859 2.96002 4.73697e-23)
(60.2582 2.98061 9.46374e-23)
(60.2297 3.00184 0)
(60.7935 2.76368 -7.70204e-23)
(60.7775 2.77692 4.4278e-18)
(60.7608 2.79061 -2.3885e-18)
(60.7441 2.80463 -1.87844e-23)
(60.7272 2.81886 -1.92126e-23)
(60.7098 2.83327 0)
(60.6919 2.8479 4.02948e-23)
(60.6736 2.86275 0)
(60.6548 2.87788 -2.7697e-18)
(60.6356 2.89324 2.83423e-18)
(60.6157 2.90892 0)
(60.5954 2.92486 -2.96837e-18)
(60.5745 2.94117 3.03576e-18)
(60.5531 2.95775 4.74706e-23)
(60.5311 2.97473 0)
(60.5085 2.99213 0)
(60.4851 3.01012 4.91898e-23)
(60.4611 3.02875 -4.92276e-23)
(60.4365 3.04803 3.23472e-18)
(60.411 3.06795 -6.46837e-18)
(60.3849 3.08852 6.46828e-18)
(60.3579 3.10976 -3.23407e-18)
(60.3301 3.13168 0)
(60.3014 3.15429 9.86523e-23)
(60.8743 2.87616 0)
(60.8588 2.88948 -1.76132e-23)
(60.8426 2.90327 2.49685e-18)
(60.8265 2.91739 -5.15188e-18)
(60.8102 2.93175 -5.93696e-22)
(60.7934 2.9463 5.39134e-18)
(60.7761 2.96109 -5.51926e-18)
(60.7585 2.97612 5.65275e-18)
(60.7403 2.99144 -2.89277e-18)
(60.7217 3.00703 2.96173e-18)
(60.7026 3.02295 -3.02817e-18)
(60.683 3.03916 3.09996e-18)
(60.6628 3.05576 -3.16947e-18)
(60.6422 3.07266 0)
(60.6209 3.09 -5.06023e-23)
(60.5991 3.10779 -3.37203e-18)
(60.5765 3.12621 6.73506e-18)
(60.5534 3.14531 -3.36921e-18)
(60.5295 3.16509 0)
(60.5049 3.18556 1.02946e-22)
(60.4796 3.20672 3.37355e-18)
(60.4535 3.22859 -3.37273e-18)
(60.4266 3.25119 0)
(60.3989 3.27454 -1.03126e-22)
(60.9478 2.979 -9.52562e-19)
(60.933 2.99234 1.20581e-18)
(60.9174 3.00619 -1.98829e-23)
(60.902 3.02038 -1.34585e-18)
(60.8863 3.03482 2.75293e-18)
(60.8702 3.04947 -1.40799e-18)
(60.8537 3.06437 0)
(60.8368 3.07953 2.25503e-23)
(60.8194 3.095 -4.61099e-23)
(60.8016 3.11077 0)
(60.7832 3.12689 -4.82008e-23)
(60.7645 3.14333 1.61819e-18)
(60.7452 3.16018 -1.65424e-18)
(60.7254 3.17738 5.15989e-23)
(60.705 3.19504 1.73247e-18)
(60.6841 3.2132 -1.75881e-18)
(60.6625 3.23201 5.36567e-23)
(60.6403 3.25156 -1.75789e-18)
(60.6175 3.27183 1.75895e-18)
(60.5939 3.29284 -5.37398e-23)
(60.5696 3.31459 5.37307e-23)
(60.5446 3.3371 -1.07332e-22)
(60.5187 3.3604 0)
(60.492 3.3845 -1.75912e-18)
(61.0142 3.07225 1.98695e-18)
(61 3.08558 -2.51573e-18)
(60.9852 3.09943 1.36254e-18)
(60.9705 3.11364 0)
(60.9556 3.1281 1.43803e-18)
(60.9403 3.1428 3.49162e-22)
(60.9246 3.15776 -1.5056e-18)
(60.9085 3.17302 -1.54208e-18)
(60.892 3.18859 -3.64146e-22)
(60.8751 3.20449 -4.18121e-22)
(60.8578 3.22077 -3.98964e-22)
(60.84 3.23741 1.68833e-18)
(60.8216 3.25448 0)
(60.8029 3.27194 -1.15539e-25)
(60.7835 3.2899 5.51899e-23)
(60.7637 3.30839 5.607e-23)
(60.7432 3.32758 -1.83176e-18)
(60.7221 3.34755 -7.08422e-22)
(60.7004 3.36831 1.83418e-18)
(60.678 3.38984 5.58995e-23)
(60.6549 3.41218 0)
(60.631 3.43534 1.32179e-25)
(60.6063 3.45934 -1.83312e-18)
(60.5809 3.48421 1.83173e-18)
(60.5545 3.50996 1.83267e-18)
(61.0736 3.15605 0)
(61.0603 3.1693 1.31156e-18)
(61.0463 3.18309 -1.42314e-18)
(61.0324 3.19725 0)
(61.0184 3.21168 -2.2893e-23)
(61.004 3.22637 -2.34615e-23)
(60.9893 3.24134 -2.40168e-23)
(60.9742 3.25663 -1.60987e-18)
(60.9587 3.27226 1.64678e-18)
(60.9428 3.28825 0)
(60.9265 3.30464 0)
(60.9098 3.32143 -5.37121e-23)
(60.8926 3.3387 0)
(60.875 3.35638 -5.62453e-23)
(60.8568 3.37461 0)
(60.8382 3.39341 5.83763e-23)
(60.8189 3.41296 -5.83301e-23)
(60.7991 3.43335 0)
(60.7786 3.45458 0)
(60.7576 3.47665 -5.84005e-23)
(60.7358 3.49958 5.82325e-23)
(60.7132 3.5234 5.83446e-23)
(60.69 3.54813 0)
(60.6659 3.57379 1.1662e-22)
(60.6409 3.60041 1.90854e-18)
(61.1267 3.23064 -1.07931e-18)
(61.1142 3.24371 1.36631e-18)
(61.1011 3.25737 0)
(61.0882 3.27141 2.33618e-23)
(61.0752 3.28573 4.78491e-23)
(61.0618 3.30034 0)
(61.0481 3.31526 0)
(61.0341 3.33052 -1.67964e-18)
(61.0197 3.34614 1.71792e-18)
(61.005 3.36216 -5.35866e-23)
(60.9899 3.37862 0)
(60.9744 3.39552 1.12163e-22)
(60.9585 3.41293 -1.87704e-18)
(60.9421 3.43081 1.91888e-18)
(60.9253 3.44928 0)
(60.9081 3.46837 -6.10033e-23)
(60.8902 3.48827 0)
(60.8718 3.50906 0)
(60.8528 3.53076 0)
(60.8332 3.55337 6.07218e-23)
(60.8129 3.57692 -1.3378e-25)
(60.7919 3.60142 1.98942e-18)
(60.7701 3.62691 -3.97643e-18)
(60.7475 3.65341 1.98675e-18)
(60.7241 3.68095 -1.21372e-22)
(61.1735 3.29614 -1.7164e-23)
(61.162 3.30896 -2.16931e-23)
(61.1499 3.3224 0)
(61.1381 3.33623 -4.88035e-23)
(61.1261 3.35037 -2.49858e-23)
(61.1139 3.36481 1.67402e-18)
(61.1014 3.37959 -3.42478e-18)
(61.0886 3.39475 3.50328e-18)
(61.0755 3.4103 -1.79144e-18)
(61.0621 3.42629 1.83264e-18)
(61.0483 3.44275 -1.87346e-18)
(61.0342 3.45971 -1.16938e-22)
(61.0197 3.47722 -1.95591e-18)
(61.0049 3.49526 -4.43006e-22)
(60.9895 3.51396 2.04237e-18)
(60.9738 3.53331 0)
(60.9575 3.55355 0)
(60.9407 3.57474 6.32409e-23)
(60.9233 3.59692 2.07715e-18)
(60.9054 3.62009 4.92912e-22)
(60.8868 3.64426 5.73279e-22)
(60.8674 3.66948 -2.07064e-18)
(60.8474 3.69577 -2.07008e-18)
(60.8265 3.72317 2.06771e-18)
(60.8048 3.75169 2.0667e-18)
(60.7822 3.78137 -4.1293e-18)
(61.2141 3.35268 1.16971e-18)
(61.2037 3.36513 3.00448e-26)
(61.1928 3.37826 0)
(61.1821 3.39179 5.09188e-23)
(61.1714 3.40564 0)
(61.1605 3.41984 0)
(61.1493 3.4344 -1.78578e-18)
(61.1378 3.44938 1.82613e-18)
(61.1262 3.46479 0)
(61.1142 3.48069 -5.83244e-23)
(61.102 3.4971 5.95367e-23)
(61.0894 3.51406 6.09661e-23)
(61.0766 3.53164 2.03714e-18)
(61.0634 3.54981 4.40862e-22)
(61.0497 3.56872 4.08402e-22)
(61.0357 3.58833 -2.16339e-18)
(61.0212 3.6089 6.60122e-23)
(61.0062 3.63049 -1.31825e-22)
(60.9906 3.65317 2.16336e-18)
(60.9745 3.67691 -2.16067e-18)
(60.9578 3.70176 2.15791e-18)
(60.9403 3.72774 -2.1551e-18)
(60.9222 3.75489 6.57811e-23)
(60.9032 3.78325 2.15181e-18)
(60.8834 3.81284 -2.14861e-18)
(60.8627 3.84369 1.31198e-22)
(61.2482 3.40032 1.21561e-18)
(61.239 3.41229 2.34687e-23)
(61.2294 3.425 -1.6918e-18)
(61.2201 3.43812 -1.39965e-22)
(61.2108 3.45159 1.77986e-18)
(61.2013 3.46544 0)
(61.1917 3.4797 2.83848e-23)
(61.1818 3.4944 0)
(61.1717 3.5096 -1.94605e-18)
(61.1614 3.52533 1.98929e-18)
(61.1509 3.54162 2.03351e-18)
(61.1402 3.55853 3.08111e-22)
(61.1291 3.57613 -2.12004e-18)
(61.1178 3.5944 -6.61666e-23)
(61.106 3.61349 2.20839e-18)
(61.094 3.63335 -2.24786e-18)
(61.0815 3.65427 -1.24066e-25)
(61.0685 3.67626 6.86093e-23)
(61.055 3.69946 6.8706e-23)
(61.0409 3.72382 -2.24905e-18)
(61.0262 3.74938 2.24523e-18)
(61.0109 3.77619 0)
(60.9948 3.80425 2.23805e-18)
(60.978 3.83365 -2.23744e-18)
(60.9603 3.8644 2.23394e-18)
(60.9417 3.89652 -2.2308e-18)
(61.2756 3.43891 0)
(61.2678 3.45029 0)
(61.2597 3.4625 8.83586e-19)
(61.2519 3.47513 -1.81458e-18)
(61.2442 3.48815 9.27769e-19)
(61.2363 3.50158 -2.89338e-23)
(61.2283 3.51546 -2.96159e-23)
(61.2201 3.52984 0)
(61.2119 3.54476 0)
(61.2035 3.56027 1.03569e-18)
(61.1949 3.5764 -1.05832e-18)
(61.1861 3.59322 -6.60554e-23)
(61.1771 3.61079 -1.10348e-18)
(61.1679 3.62913 1.12709e-18)
(61.1584 3.64841 0)
(61.1486 3.66845 1.16848e-18)
(61.1383 3.68983 -1.18409e-18)
(61.1276 3.71215 0)
(61.1163 3.73593 -1.42826e-22)
(61.1046 3.76108 -1.36103e-25)
(61.0923 3.78732 0)
(61.0793 3.81523 -7.16154e-23)
(61.0655 3.84414 -7.04393e-23)
(61.051 3.8747 1.41916e-22)
(61.0357 3.90681 -2.83844e-22)
(61.0194 3.94024 3.17618e-25)
(61.2957 3.46865 0)
(61.2895 3.47923 -2.50837e-23)
(61.2831 3.49079 -2.82149e-23)
(61.277 3.50277 -9.45759e-19)
(61.2711 3.51516 9.66872e-19)
(61.265 3.52801 6.0327e-23)
(61.2589 3.54136 0)
(61.2527 3.55525 1.03241e-18)
(61.2465 3.56975 2.61338e-24)
(61.2402 3.58491 -1.07796e-18)
(61.2337 3.60078 -1.10133e-18)
(61.2272 3.61742 1.12488e-18)
(61.2204 3.63488 0)
(61.2135 3.65326 1.17319e-18)
(61.2064 3.67269 -1.19082e-18)
(61.199 3.69316 7.3384e-23)
(61.1913 3.71467 -1.2084e-18)
(61.1832 3.73809 1.2354e-18)
(61.1745 3.76191 1.27476e-25)
(61.1657 3.78859 -1.40974e-25)
(61.1558 3.81477 0)
(61.1457 3.84456 7.71967e-23)
(61.1346 3.87426 1.18505e-18)
(61.1225 3.90571 -1.18675e-18)
(61.1098 3.94006 -1.23558e-18)
(61.096 3.97448 1.17676e-18)
(61.0812 4.01176 -1.21521e-18)
(61.3078 3.48936 6.64595e-19)
(61.3033 3.49919 -1.6707e-18)
(61.2987 3.51018 9.641e-19)
(61.2944 3.5216 9.85503e-19)
(61.2903 3.53349 -1.00733e-18)
(61.2863 3.54586 -3.14286e-23)
(61.2822 3.55878 -3.20865e-23)
(61.2782 3.57224 3.28139e-23)
(61.2742 3.5863 -1.09791e-18)
(61.2703 3.60102 2.24286e-18)
(61.2663 3.61649 -2.29056e-18)
(61.2623 3.63277 5.89585e-23)
(61.2582 3.64995 1.19399e-18)
(61.2539 3.66815 1.21881e-18)
(61.2495 3.68756 -2.45792e-18)
(61.2449 3.7079 1.24848e-18)
(61.24 3.73013 1.24833e-18)
(61.2347 3.75362 -2.44922e-18)
(61.2288 3.77756 2.42313e-18)
(61.2229 3.806 -1.26396e-18)
(61.2161 3.83235 1.16591e-18)
(61.2091 3.86379 8.30108e-23)
(61.2011 3.89575 1.05566e-22)
(61.1915 3.92702 1.73481e-22)
(61.1821 3.96561 -1.34925e-18)
(61.1709 4.00004 1.15629e-18)
(61.1585 4.03901 -1.24089e-18)
(61.3127 3.50076 -6.66306e-19)
(61.3099 3.50926 1.65736e-18)
(61.3074 3.51907 -1.99974e-18)
(61.3052 3.52934 1.02161e-18)
(61.303 3.54029 6.37033e-23)
(61.3009 3.55197 0)
(61.2988 3.56398 1.08063e-18)
(61.2965 3.57693 -1.38744e-22)
(61.2943 3.59066 -1.14205e-18)
(61.2924 3.60517 0)
(61.2907 3.62045 1.19048e-18)
(61.289 3.63659 -1.21515e-18)
(61.2875 3.65368 0)
(61.2858 3.67232 -7.47995e-23)
(61.2842 3.6913 7.6261e-23)
(61.2821 3.71356 0)
(61.2802 3.73429 -7.27302e-23)
(61.2782 3.76015 -1.22292e-18)
(61.2758 3.78272 1.17752e-18)
(61.2728 3.81474 0)
(61.2699 3.84123 0)
(61.2668 3.87248 -6.78273e-23)
(61.2623 3.90647 -1.33685e-22)
(61.2558 3.93648 -1.3395e-22)
(61.2489 3.97814 0)
(61.2406 4.01739 1.54541e-22)
(61.2302 4.05569 -1.43057e-22)
(61.3053 3.50724 -2.59079e-27)
(61.3043 3.51415 7.67546e-19)
(61.303 3.52476 -8.13673e-19)
(61.3022 3.53316 -2.52363e-23)
(61.3014 3.54612 -2.45473e-23)
(61.3011 3.55547 -7.24485e-19)
(61.3019 3.5664 1.91855e-18)
(61.3026 3.58044 -9.61648e-19)
(61.303 3.59122 2.88642e-23)
(61.304 3.60395 -1.16221e-18)
(61.305 3.61877 1.18985e-18)
(61.306 3.63451 -1.113e-18)
(61.3074 3.64984 2.35043e-18)
(61.3093 3.66812 -2.50164e-22)
(61.3109 3.6884 -2.33407e-22)
(61.3123 3.70718 -1.23957e-18)
(61.3141 3.72939 8.41079e-23)
(61.3154 3.75385 0)
(61.3168 3.77999 -8.35219e-23)
(61.3171 3.80667 0)
(61.3173 3.8365 0)
(61.3168 3.86742 0)
(61.3153 3.91628 1.03549e-18)
(61.3128 3.94958 -7.83922e-19)
(61.3102 3.98929 0)
(61.3067 4.0264 1.08268e-22)
(61.2993 4.06216 1.05861e-18)
(61.2891 3.50259 7.07827e-19)
(61.2903 3.51003 0)
(61.2915 3.51855 0)
(61.2933 3.52727 2.94694e-23)
(61.2957 3.53635 9.99111e-19)
(61.2986 3.54593 -1.03802e-18)
(61.302 3.55584 -1.07666e-18)
(61.3059 3.56622 2.99491e-22)
(61.31 3.57756 2.44608e-18)
(61.3141 3.59008 -4.63581e-22)
(61.3183 3.6038 -1.24918e-18)
(61.3229 3.61883 0)
(61.3278 3.63541 0)
(61.3328 3.65263 -1.31611e-18)
(61.3381 3.67184 1.38613e-18)
(61.3433 3.69246 9.86071e-26)
(61.3483 3.71496 0)
(61.353 3.73955 1.40818e-18)
(61.358 3.76658 -2.88199e-18)
(61.3616 3.79491 1.36112e-18)
(61.3655 3.82637 0)
(61.3673 3.85981 0)
(61.371 3.89802 8.8494e-23)
(61.3727 3.93396 0)
(61.3739 3.97468 0)
(61.3741 4.02444 -1.6847e-22)
(61.3719 4.08472 0)
(61.3678 4.1252 0)
(61.2601 3.4928 8.17848e-19)
(61.2637 3.49854 -1.07101e-18)
(61.2679 3.50484 0)
(61.2728 3.51162 0)
(61.2785 3.51896 0)
(61.2847 3.52702 1.15225e-18)
(61.2913 3.5359 -2.36418e-18)
(61.2983 3.5456 1.21013e-18)
(61.3057 3.55623 0)
(61.3135 3.56801 7.74652e-23)
(61.3216 3.58086 0)
(61.33 3.59509 8.07691e-23)
(61.3388 3.61103 0)
(61.3478 3.62848 -1.39621e-18)
(61.357 3.64748 5.53209e-22)
(61.3662 3.66829 6.5777e-22)
(61.3753 3.69113 1.4719e-18)
(61.3843 3.71631 -8.95834e-23)
(61.393 3.74394 -8.91582e-23)
(61.4013 3.77406 0)
(61.409 3.8068 0)
(61.416 3.84237 0)
(61.4224 3.88106 0)
(61.4277 3.92187 0)
(61.4313 3.96539 1.42992e-18)
(61.4356 4.01304 -1.50736e-18)
(61.4386 4.06066 1.63989e-22)
(61.4401 4.11421 0)
(61.2202 3.4717 -2.6598e-23)
(61.2269 3.47559 -3.43752e-23)
(61.2342 3.48007 0)
(61.2422 3.48517 0)
(61.251 3.49095 5.88442e-19)
(61.2604 3.49755 -6.05151e-19)
(61.2704 3.5051 3.7737e-23)
(61.2809 3.5137 6.30669e-19)
(61.292 3.52344 -6.4438e-19)
(61.3037 3.53449 0)
(61.3158 3.54692 -6.72065e-19)
(61.3283 3.56081 6.85364e-19)
(61.3412 3.5759 -7.04688e-19)
(61.3545 3.59287 7.19162e-19)
(61.3679 3.61177 0)
(61.3815 3.63305 9.20113e-23)
(61.3953 3.65651 1.86029e-22)
(61.4088 3.6825 -9.26045e-23)
(61.4222 3.71119 9.23632e-23)
(61.4351 3.74266 -7.52945e-19)
(61.4475 3.77702 3.91273e-22)
(61.4592 3.81439 7.4731e-19)
(61.47 3.85481 -7.43634e-19)
(61.4797 3.89825 7.4095e-19)
(61.4881 3.94485 -1.79881e-22)
(61.4952 3.99524 0)
(61.5001 4.04809 -4.16829e-25)
(61.5038 4.10426 -1.7746e-22)
(61.1678 3.4423 -4.56667e-19)
(61.1774 3.44434 2.61595e-22)
(61.1878 3.44695 5.88436e-19)
(61.199 3.45027 0)
(61.2111 3.45437 0)
(61.224 3.45938 0)
(61.2377 3.46545 -3.92535e-23)
(61.2521 3.4727 -6.55997e-19)
(61.2672 3.48125 6.69857e-19)
(61.2831 3.49124 0)
(61.2995 3.5028 8.51609e-23)
(61.3166 3.5161 0)
(61.3342 3.53123 0)
(61.3521 3.54831 5.68221e-26)
(61.3703 3.56726 7.49878e-19)
(61.3887 3.58815 -4.84811e-22)
(61.4073 3.61211 -7.88534e-19)
(61.4259 3.63894 7.84547e-19)
(61.4443 3.66879 -7.81613e-19)
(61.4624 3.70175 0)
(61.4799 3.73794 -7.74064e-19)
(61.4965 3.77745 7.7089e-19)
(61.5122 3.82034 -1.87279e-22)
(61.5267 3.86664 1.86202e-22)
(61.5396 3.91637 1.85688e-22)
(61.551 3.96964 1.84383e-22)
(61.5603 4.02621 -4.35602e-25)
(61.5675 4.08683 3.65475e-22)
(61.1002 3.40473 4.76663e-19)
(61.113 3.40471 -6.00821e-19)
(61.1267 3.40521 2.67043e-26)
(61.1415 3.40652 -3.82137e-23)
(61.1573 3.40871 -6.40206e-19)
(61.174 3.41193 6.54701e-19)
(61.1917 3.41632 0)
(61.2104 3.42202 -6.81394e-19)
(61.2299 3.42919 6.95421e-19)
(61.2503 3.43798 -8.65769e-23)
(61.2716 3.44852 0)
(61.2936 3.46101 7.3702e-19)
(61.3162 3.47558 -7.51833e-19)
(61.3395 3.49245 4.86418e-26)
(61.3631 3.51185 0)
(61.387 3.53369 -9.61647e-23)
(61.4111 3.55755 0)
(61.435 3.58479 -8.01096e-19)
(61.4588 3.61608 1.61295e-18)
(61.4823 3.65081 -8.02739e-19)
(61.5053 3.68908 0)
(61.5274 3.73104 7.93853e-19)
(61.5484 3.77677 -7.90105e-19)
(61.568 3.82629 -3.86977e-25)
(61.5859 3.87961 1.90599e-22)
(61.6019 3.93677 -1.89989e-22)
(61.6157 3.99764 -4.56848e-25)
(61.627 4.06229 -1.87945e-22)
(61.0164 3.35931 0)
(61.0325 3.35695 0)
(61.0499 3.3551 -3.89555e-23)
(61.0684 3.35411 3.97906e-23)
(61.0882 3.35412 -4.06595e-23)
(61.1092 3.35528 4.1496e-23)
(61.1313 3.35775 0)
(61.1546 3.36171 -7.06753e-19)
(61.179 3.3673 7.21233e-19)
(61.2044 3.37471 1.79428e-22)
(61.2309 3.38411 -9.14495e-23)
(61.2583 3.3957 7.62951e-19)
(61.2865 3.40964 -7.78134e-19)
(61.3154 3.42615 9.66837e-23)
(61.345 3.44545 0)
(61.375 3.46775 0)
(61.4052 3.49324 -8.23204e-19)
(61.4352 3.5221 8.19961e-19)
(61.465 3.55389 0)
(61.4944 3.5905 0)
(61.5233 3.63108 0)
(61.5513 3.67576 8.16726e-19)
(61.5781 3.72462 -8.12896e-19)
(61.6032 3.77771 -8.0744e-19)
(61.6264 3.83503 8.02937e-19)
(61.6474 3.89655 0)
(61.6658 3.96217 -7.92849e-19)
(61.6813 4.03181 7.88641e-19)
(60.9144 3.30613 -3.15086e-23)
(60.9342 3.30113 0)
(60.9556 3.29661 6.64364e-19)
(60.9784 3.29302 -6.79253e-19)
(61.0026 3.29055 4.22215e-23)
(61.0282 3.28938 7.05089e-19)
(61.0552 3.28968 -5.89433e-22)
(61.0836 3.29165 -1.46601e-18)
(61.1133 3.29546 7.47231e-19)
(61.1443 3.30133 -7.60585e-19)
(61.1765 3.30944 7.50494e-22)
(61.2099 3.32003 6.93998e-22)
(61.2442 3.33327 8.04078e-19)
(61.2795 3.34942 8.17411e-19)
(61.3154 3.3687 -8.31362e-19)
(61.3519 3.39134 -8.41808e-19)
(61.3888 3.41754 9.49942e-22)
(61.4258 3.44785 8.49497e-19)
(61.4624 3.48241 8.39373e-19)
(61.4985 3.52022 -8.40982e-19)
(61.5338 3.56277 0)
(61.568 3.61085 2.05005e-22)
(61.6009 3.66346 8.33812e-19)
(61.632 3.7207 -1.65758e-18)
(61.6609 3.78259 8.23732e-19)
(61.6872 3.84909 0)
(61.7105 3.92011 -8.1224e-19)
(61.7305 3.9955 8.07339e-19)
(61.7467 4.07513 -1.95423e-22)
(60.7942 3.24512 3.26835e-23)
(60.818 3.23717 6.65207e-19)
(60.8437 3.22966 -1.38235e-18)
(60.871 3.22316 5.69381e-22)
(60.8999 3.21791 7.18861e-19)
(60.9305 3.21412 0)
(60.9628 3.21198 7.45131e-19)
(60.9968 3.21171 -7.59793e-19)
(61.0323 3.21353 7.72793e-19)
(61.0694 3.21766 -7.8747e-19)
(61.1079 3.22433 -2.91677e-26)
(61.1478 3.23379 9.94962e-23)
(61.1889 3.24627 1.01238e-22)
(61.231 3.26203 0)
(61.2741 3.28132 8.55898e-19)
(61.3177 3.30439 -8.68328e-19)
(61.3619 3.33147 8.77719e-19)
(61.4061 3.36303 -9.41189e-22)
(61.4502 3.39947 -8.69985e-19)
(61.4938 3.44098 0)
(61.5361 3.48717 -8.47701e-19)
(61.5772 3.5374 8.51195e-19)
(61.6166 3.59401 8.54857e-19)
(61.6541 3.65576 -8.49726e-19)
(61.6891 3.72267 0)
(61.7211 3.79467 2.04044e-22)
(61.7497 3.87163 0)
(61.7744 3.95338 0)
(61.7949 4.03969 -8.18137e-19)
(60.6547 3.1766 -5.57244e-19)
(60.6829 3.16537 -8.41975e-23)
(60.7133 3.15453 0)
(60.7455 3.14476 6.55222e-26)
(60.7795 3.13639 0)
(60.8156 3.12965 -7.58333e-19)
(60.8537 3.12478 8.37885e-22)
(60.8937 3.122 1.57264e-18)
(60.9356 3.12156 -8.0054e-19)
(60.9793 3.12374 -9.93618e-23)
(61.0247 3.12878 -4.41305e-26)
(61.0718 3.13698 8.40718e-19)
(61.1202 3.14859 -8.55939e-19)
(61.1699 3.16391 0)
(61.2206 3.18322 0)
(61.2721 3.2068 0)
(61.3241 3.23489 1.10187e-22)
(61.3763 3.26796 -1.10435e-22)
(61.4283 3.30644 1.09323e-22)
(61.4798 3.35052 -1.0819e-22)
(61.5302 3.40044 1.06912e-22)
(61.5789 3.45588 -1.05423e-22)
(61.6255 3.51574 1.05374e-22)
(61.6697 3.58268 0)
(61.7112 3.65528 0)
(61.7493 3.73343 -5.36835e-25)
(61.7834 3.81698 -2.06746e-22)
(61.8131 3.90573 2.05083e-22)
(61.8379 3.9994 0)
(60.4959 3.10055 2.89898e-19)
(60.5288 3.08569 8.73409e-23)
(60.5642 3.07115 0)
(60.6017 3.05776 -4.65128e-23)
(60.6413 3.04592 3.86778e-19)
(60.6833 3.03592 -3.93452e-19)
(60.7277 3.028 -3.99831e-19)
(60.7743 3.02243 5.77249e-22)
(60.8231 3.01948 4.14061e-19)
(60.874 3.01948 -4.20031e-19)
(60.9269 3.02271 4.27692e-19)
(60.9817 3.0295 0)
(61.0382 3.04015 0)
(61.0961 3.05498 -4.47042e-19)
(61.1552 3.07432 4.53951e-19)
(61.2153 3.09848 0)
(61.2759 3.12774 -4.63343e-19)
(61.3367 3.16256 4.65063e-19)
(61.3973 3.20341 -4.60019e-19)
(61.4572 3.2505 4.56245e-19)
(61.516 3.30401 1.09977e-22)
(61.5731 3.3641 0)
(61.6277 3.43039 4.3683e-19)
(61.6793 3.50158 -4.37687e-19)
(61.7275 3.5805 0)
(61.7718 3.66548 4.35383e-19)
(61.8118 3.75632 -4.32203e-19)
(61.8466 3.85276 -2.09463e-22)
(61.876 3.95449 0)
(60.3179 3.01716 -6.03561e-19)
(60.3558 2.9983 3.71468e-19)
(60.3966 2.9797 4.74375e-23)
(60.4398 2.9623 0)
(60.4854 2.94663 -4.01278e-19)
(60.5338 2.93302 5.34898e-22)
(60.5849 2.92172 4.14622e-19)
(60.6386 2.91304 -4.20936e-19)
(60.6949 2.90732 4.28118e-19)
(60.7537 2.90489 1.06089e-22)
(60.8147 2.90611 -1.07598e-22)
(60.8779 2.91133 4.46889e-19)
(60.9431 2.9209 -4.54231e-19)
(61.01 2.93519 0)
(61.0782 2.95458 -1.13816e-22)
(61.1476 2.9794 0)
(61.2176 3.00996 -1.16082e-22)
(61.2878 3.04676 -1.16365e-22)
(61.3577 3.09032 0)
(61.4267 3.14083 1.61996e-25)
(61.4944 3.19843 -1.87967e-25)
(61.5602 3.26324 1.11391e-22)
(61.6233 3.3354 -2.19525e-22)
(61.6828 3.41421 -2.15636e-22)
(61.7383 3.49952 -4.47423e-19)
(61.7894 3.59171 9.4177e-22)
(61.8354 3.69035 8.79215e-19)
(61.8756 3.79504 -4.35793e-19)
(61.9094 3.90538 4.30974e-19)
(60.1211 2.92666 3.84435e-23)
(60.1643 2.90342 0)
(60.211 2.88035 -4.92074e-23)
(60.2602 2.85854 -4.11182e-19)
(60.3123 2.83865 4.16894e-19)
(60.3675 2.82105 4.22314e-19)
(60.4259 2.80603 -4.29507e-19)
(60.4873 2.79392 0)
(60.5517 2.78512 -5.40215e-23)
(60.6189 2.78002 -1.09457e-22)
(60.6887 2.779 0)
(60.7611 2.78249 2.25156e-22)
(60.8357 2.79087 -1.14081e-22)
(60.9122 2.80456 -4.73088e-19)
(60.9904 2.82399 1.02755e-21)
(61.0698 2.84955 4.83852e-19)
(61.1499 2.88157 1.19073e-22)
(61.2302 2.9206 0)
(61.3102 2.96719 0)
(61.3891 3.02153 -4.77013e-19)
(61.4664 3.08376 4.72885e-19)
(61.5414 3.15394 -1.14141e-22)
(61.6133 3.23214 2.4908e-25)
(61.6814 3.31847 2.20729e-22)
(61.7448 3.4104 4.48629e-19)
(61.8028 3.51126 -4.51676e-19)
(61.8548 3.61883 0)