# p  FACE_DATA 341
#  x  y  z  p
0.253551 0.0594249 0.5 -1027.01
0.260625 0.059604 0.5 -1065.85
0.268301 0.0597641 0.5 -1099.54
0.275825 0.0598682 0.5 -1080.83
0.282831 0.059928 0.5 -1052.01
0.290299 0.0599719 0.5 -1039.89
0.298014 0.0599954 0.5 -1030.37
0.305661 0.0599931 0.5 -1022.59
0.313016 0.0599637 0.5 -1011.8
0.3202 0.0599102 0.5 -998.233
0.327394 0.0598346 0.5 -986.157
0.334592 0.0597382 0.5 -974.075
0.341788 0.059622 0.5 -961.873
0.348891 0.0594882 0.5 -950.487
0.355903 0.0593371 0.5 -939.415
0.362912 0.0591677 0.5 -927.192
0.369915 0.058981 0.5 -914.908
0.376908 0.0587783 0.5 -903.134
0.383848 0.0585616 0.5 -891.673
0.39071 0.0583318 0.5 -880.813
0.397536 0.0580877 0.5 -869.184
0.404349 0.0578293 0.5 -857.622
0.411146 0.0575577 0.5 -845.932
0.417921 0.0572738 0.5 -834.44
0.424635 0.05698 0.5 -823.494
0.431287 0.0566758 0.5 -812.899
0.437919 0.0563599 0.5 -801.663
0.444529 0.056033 0.5 -790.282
0.451115 0.055696 0.5 -779.067
0.457672 0.0553498 0.5 -768.091
0.464179 0.0549959 0.5 -757.785
0.47064 0.0546337 0.5 -747.374
0.477077 0.0542621 0.5 -736.573
0.483487 0.0538822 0.5 -725.689
0.489866 0.0534947 0.5 -715.012
0.496211 0.0531004 0.5 -704.526
0.50252 0.0526998 0.5 -694.404
0.508797 0.0522921 0.5 -684.479
0.515045 0.0518774 0.5 -674.13
0.52126 0.0514563 0.5 -663.773
0.52744 0.0510296 0.5 -653.485
0.533582 0.0505981 0.5 -643.356
0.539695 0.0501616 0.5 -633.5
0.545788 0.0497191 0.5 -624.024
0.551854 0.0492707 0.5 -614.225
0.557885 0.0488177 0.5 -604.329
0.563876 0.0483607 0.5 -594.425
0.569827 0.0479005 0.5 -584.662
0.575737 0.0474373 0.5 -575.104
0.58164 0.0469687 0.5 -565.854
0.587536 0.0464941 0.5 -556.632
0.593393 0.0460162 0.5 -547.177
0.599208 0.0455357 0.5 -537.692
0.60498 0.045053 0.5 -528.287
0.610706 0.0445687 0.5 -519.042
0.616408 0.0440814 0.5 -509.921
0.622117 0.043588 0.5 -501.086
0.627812 0.04309 0.5 -491.991
0.633463 0.0425903 0.5 -482.761
0.639069 0.0420895 0.5 -473.556
0.644626 0.0415881 0.5 -464.446
0.650134 0.0410868 0.5 -455.48
0.655639 0.0405812 0.5 -446.661
0.661165 0.0400689 0.5 -437.994
0.666665 0.039554 0.5 -429.074
0.672117 0.0390389 0.5 -420.102
0.677519 0.038524 0.5 -411.171
0.682868 0.0380099 0.5 -402.339
0.688165 0.037497 0.5 -393.614
0.693484 0.0369779 0.5 -385
0.698837 0.0364512 0.5 -376.352
0.704147 0.0359241 0.5 -367.527
0.709405 0.0353979 0.5 -358.7
0.714609 0.0348733 0.5 -349.928
0.719757 0.0343505 0.5 -341.254
0.724855 0.0338293 0.5 -332.665
0.729999 0.0332999 0.5 -324.165
0.73518 0.0327625 0.5 -315.5
0.740306 0.0322267 0.5 -306.683
0.745375 0.0316932 0.5 -297.859
0.750386 0.0311622 0.5 -289.08
0.755336 0.0306343 0.5 -280.391
0.76026 0.0301061 0.5 -271.746
0.765241 0.0295683 0.5 -263.134
0.770246 0.0290241 0.5 -254.304
0.775191 0.0284829 0.5 -245.361
0.780073 0.027945 0.5 -236.43
0.784891 0.0274108 0.5 -227.547
0.789645 0.0268807 0.5 -218.746
0.794414 0.0263459 0.5 -209.91
0.799254 0.0257999 0.5 -200.997
0.804082 0.0252514 0.5 -191.807
0.808843 0.0247071 0.5 -182.546
0.813536 0.0241673 0.5 -173.297
0.81816 0.0236326 0.5 -164.111
0.822721 0.0231023 0.5 -154.989
0.827366 0.0225594 0.5 -145.776
0.832084 0.0220045 0.5 -136.259
0.836729 0.0214548 0.5 -126.557
0.841299 0.0209107 0.5 -116.863
0.845793 0.0203728 0.5 -107.197
0.85021 0.0198415 0.5 -97.6129
0.854677 0.0193015 0.5 -87.8977
0.859239 0.0187469 0.5 -77.9849
0.863766 0.0181934 0.5 -67.7521
0.868209 0.0176469 0.5 -57.4955
0.872568 0.017108 0.5 -47.2655
0.87684 0.0165772 0.5 -37.1308
0.881165 0.0160373 0.5 -26.7775
0.885597 0.0154808 0.5 -16.1329
0.889995 0.0149253 0.5 -5.08099
0.894296 0.0143788 0.5 6.00378
0.8985 0.013842 0.5 17.0228
0.902612 0.0133146 0.5 27.9807
0.90685 0.0127685 0.5 39.2494
0.911199 0.0122047 0.5 51.0952
0.915436 0.0116524 0.5 63.1632
0.919558 0.0111121 0.5 75.1679
0.923564 0.0105848 0.5 87.0506
0.92766 0.0100432 0.5 99.3035
0.931889 0.00948105 0.5 112.064
0.936032 0.00892713 0.5 125.249
0.940034 0.00838932 0.5 138.292
0.943918 0.00786528 0.5 151.272
0.947957 0.00731753 0.5 164.785
0.952111 0.00675118 0.5 179.197
0.956082 0.0062066 0.5 193.652
0.959868 0.005685 0.5 207.847
0.963806 0.00514008 0.5 222.74
0.967884 0.00457263 0.5 238.622
0.971729 0.00403453 0.5 254.606
0.97552 0.00350184 0.5 270.794
0.979458 0.0029459 0.5 287.903
0.983267 0.00240536 0.5 305.023
0.98706 0.00186472 0.5 324.827
0.990882 0.00131704 0.5 340.303
0.994678 0.000770466 0.5 370.933
0.99832 0.00024378 0.5 366.992
0.00133235 0.00449653 0.5 3724.71
0.00576479 0.0125392 0.5 1724.03
0.0127073 0.018847 0.5 278.068
0.0207688 0.0238748 0.5 -338.784
0.0291543 0.0279559 0.5 -653.21
0.037672 0.0313759 0.5 -864.76
0.0464094 0.0343841 0.5 -978.838
0.0551576 0.0370177 0.5 -1068.74
0.0639069 0.0393539 0.5 -1126.72
0.0727041 0.0414595 0.5 -1164.92
0.081414 0.0433437 0.5 -1195.85
0.090183 0.0450639 0.5 -1215.29
0.098871 0.0466203 0.5 -1231.46
0.107395 0.0480148 0.5 -1239.56
0.116087 0.049318 0.5 -1247.96
0.124618 0.0504925 0.5 -1251.67
0.132994 0.0515502 0.5 -1255.57
0.141535 0.0525408 0.5 -1258.38
0.149928 0.053435 0.5 -1252.21
0.158135 0.0542362 0.5 -1235.32
0.166435 0.0549791 0.5 -1210.45
0.174718 0.0556571 0.5 -1190.78
0.182824 0.0562624 0.5 -1177.14
0.190865 0.0568083 0.5 -1169.06
0.198976 0.0573076 0.5 -1163.2
0.20712 0.0577564 0.5 -1159.15
0.215524 0.0581602 0.5 -1151.13
0.224086 0.0585239 0.5 -1125.1
0.231971 0.0588335 0.5 -1118.41
0.239768 0.0591111 0.5 -1119.7
0.246955 0.0592927 0.5 -1161.98
0.00133235 -0.00449653 0.5 3725.45
0.00576479 -0.0125392 0.5 1733.69
0.0127073 -0.018847 0.5 270.89
0.0207688 -0.0238748 0.5 -340.8
0.0291543 -0.0279559 0.5 -655.497
0.037672 -0.0313759 0.5 -853.925
0.0464094 -0.0343841 0.5 -987.773
0.0551576 -0.0370177 0.5 -1070.94
0.0639069 -0.0393539 0.5 -1125.37
0.0727041 -0.0414595 0.5 -1166.18
0.081414 -0.0433437 0.5 -1195.75
0.090183 -0.0450639 0.5 -1215.66
0.098871 -0.0466203 0.5 -1230.15
0.107395 -0.0480148 0.5 -1238.77
0.116087 -0.049318 0.5 -1245.49
0.124618 -0.0504925 0.5 -1248.84
0.132994 -0.0515502 0.5 -1249.58
0.141535 -0.0525408 0.5 -1251.85
0.149928 -0.053435 0.5 -1251.56
0.158135 -0.0542362 0.5 -1252.74
0.166435 -0.0549791 0.5 -1243.05
0.174718 -0.0556571 0.5 -1221.88
0.182824 -0.0562624 0.5 -1190.7
0.190865 -0.0568083 0.5 -1168.06
0.198976 -0.0573076 0.5 -1154.93
0.20712 -0.0577564 0.5 -1150.49
0.215524 -0.0581602 0.5 -1142.41
0.224086 -0.0585239 0.5 -1117.8
0.231971 -0.0588335 0.5 -1111.9
0.239768 -0.0591111 0.5 -1114.14
0.246955 -0.0592927 0.5 -1159.61
0.253478 -0.0594229 0.5 -1022.88
0.260394 -0.0595984 0.5 -1062.62
0.267845 -0.0597569 0.5 -1096.69
0.275233 -0.059862 0.5 -1081.37
0.282135 -0.059923 0.5 -1051.77
0.289403 -0.0599678 0.5 -1039.9
0.296942 -0.0599937 0.5 -1030.65
0.304465 -0.0599955 0.5 -1022.32
0.311708 -0.0599711 0.5 -1013.39
0.318744 -0.0599229 0.5 -999.918
0.325783 -0.0598535 0.5 -987.771
0.332827 -0.0597638 0.5 -976.145
0.339871 -0.0596549 0.5 -964.412
0.346848 -0.0595287 0.5 -952.967
0.353736 -0.0593859 0.5 -941.955
0.360596 -0.0592257 0.5 -930.526
0.367453 -0.0590487 0.5 -918.55
0.3743 -0.0588558 0.5 -906.727
0.381124 -0.0586486 0.5 -895.091
0.38787 -0.0584289 0.5 -884.602
0.394554 -0.0581963 0.5 -873.548
0.401228 -0.0579495 0.5 -861.982
0.407888 -0.0576896 0.5 -850.444
0.41453 -0.0574175 0.5 -839.174
0.421133 -0.0571349 0.5 -828.266
0.427675 -0.0568427 0.5 -817.864
0.434175 -0.0565398 0.5 -807.045
0.440657 -0.0562259 0.5 -795.869
0.447118 -0.0559019 0.5 -784.96
0.453553 -0.0555685 0.5 -774.072
0.459952 -0.0552271 0.5 -763.436
0.466305 -0.054878 0.5 -753.495
0.472621 -0.0545205 0.5 -743.074
0.478913 -0.0541543 0.5 -732.61
0.485178 -0.0537804 0.5 -721.983
0.491413 -0.0533994 0.5 -711.508
0.497615 -0.0530121 0.5 -701.289
0.503783 -0.0526186 0.5 -691.523
0.509921 -0.0522183 0.5 -681.777
0.51603 -0.0518112 0.5 -671.612
0.522108 -0.0513982 0.5 -661.407
0.528152 -0.05098 0.5 -651.328
0.534159 -0.0505573 0.5 -641.447
0.54014 -0.0501296 0.5 -631.847
0.546102 -0.0496961 0.5 -622.643
0.552038 -0.0492571 0.5 -612.994
0.557939 -0.0488136 0.5 -603.244
0.563803 -0.0483664 0.5 -593.569
0.569628 -0.047916 0.5 -584.014
0.575412 -0.047463 0.5 -574.678
0.58119 -0.0470047 0.5 -565.655
0.586964 -0.0465405 0.5 -556.614
0.5927 -0.0460731 0.5 -547.349
0.598397 -0.0456031 0.5 -538.088
0.604052 -0.045131 0.5 -528.893
0.609664 -0.0446572 0.5 -519.848
0.615243 -0.0441814 0.5 -510.955
0.620829 -0.0436999 0.5 -502.289
0.626413 -0.0432129 0.5 -493.45
0.631955 -0.0427242 0.5 -484.442
0.637454 -0.0422343 0.5 -475.455
0.642907 -0.0417437 0.5 -466.502
0.648313 -0.041253 0.5 -457.751
0.653694 -0.0407603 0.5 -449.063
0.659096 -0.0402614 0.5 -440.605
0.664496 -0.0397577 0.5 -431.953
0.669852 -0.0392536 0.5 -423.192
0.675159 -0.0387495 0.5 -414.452
0.680418 -0.0382459 0.5 -405.773
0.685626 -0.0377433 0.5 -397.239
0.690816 -0.0372389 0.5 -388.75
0.696038 -0.0367272 0.5 -380.406
0.701263 -0.0362109 0.5 -371.84
0.706438 -0.0356954 0.5 -363.183
0.711561 -0.035181 0.5 -354.548
0.716633 -0.0346682 0.5 -345.964
0.72165 -0.0341574 0.5 -337.511
0.726654 -0.0336446 0.5 -329.079
0.731704 -0.0331235 0.5 -320.739
0.736758 -0.032598 0.5 -312.16
0.741759 -0.0320742 0.5 -303.495
0.746705 -0.0315527 0.5 -294.858
0.751594 -0.0310337 0.5 -286.249
0.756425 -0.0305178 0.5 -277.779
0.761255 -0.029999 0.5 -269.289
0.766142 -0.0294707 0.5 -260.829
0.771031 -0.0289385 0.5 -252.12
0.775861 -0.0284092 0.5 -243.348
0.780632 -0.0278832 0.5 -234.598
0.785341 -0.0273608 0.5 -225.891
0.789989 -0.0268423 0.5 -217.271
0.79466 -0.0263184 0.5 -208.615
0.799401 -0.0257833 0.5 -199.865
0.804125 -0.0252465 0.5 -190.83
0.808785 -0.0247137 0.5 -181.748
0.81338 -0.0241853 0.5 -172.682
0.817908 -0.0236617 0.5 -163.678
0.822369 -0.0231434 0.5 -154.74
0.826908 -0.0226131 0.5 -145.728
0.831528 -0.0220701 0.5 -136.436
0.836084 -0.0215313 0.5 -126.933
0.840568 -0.0209979 0.5 -117.418
0.844979 -0.0204704 0.5 -107.938
0.849317 -0.0199491 0.5 -98.5349
0.853667 -0.0194238 0.5 -89.0504
0.858113 -0.0188842 0.5 -79.4335
0.862564 -0.0183407 0.5 -69.4557
0.866936 -0.0178038 0.5 -59.3977
0.871227 -0.0172741 0.5 -49.3656
0.875436 -0.016752 0.5 -39.4063
0.879628 -0.0162295 0.5 -29.3586
0.88393 -0.0156905 0.5 -19.1185
0.88827 -0.0151435 0.5 -8.36056
0.892518 -0.014605 0.5 2.48932
0.896674 -0.0140755 0.5 13.3139
0.900735 -0.0135557 0.5 24.0569
0.904824 -0.01303 0.5 34.9958
0.909034 -0.0124858 0.5 46.212
0.913238 -0.0119394 0.5 57.9781
0.917332 -0.0114042 0.5 69.773
0.921316 -0.010881 0.5 81.4609
0.925241 -0.0103633 0.5 93.1913
0.929306 -0.00982488 0.5 105.275
0.933445 -0.00927338 0.5 118.063
0.937451 -0.00873681 0.5 130.937
0.941321 -0.00821597 0.5 143.642
0.945168 -0.00769601 0.5 156.559
0.949167 -0.00715299 0.5 169.932
0.953183 -0.00660441 0.5 184.125
0.957024 -0.006077 0.5 198.184
0.960743 -0.00556416 0.5 212.203
0.964631 -0.00502557 0.5 226.843
0.968598 -0.00447292 0.5 242.528
0.972318 -0.00395183 0.5 258.046
0.976051 -0.00342699 0.5 273.96
0.979926 -0.00287974 0.5 290.818
0.983612 -0.00235633 0.5 307.46
0.987331 -0.00182587 0.5 326.799
0.991079 -0.00128868 0.5 341.928
0.994786 -0.000754822 0.5 371.88
0.998359 -0.000238135 0.5 367.544
