# wallShearStress  FACE_DATA 341
#  x  y  z  wallShearStress_x  wallShearStress_y  wallShearStress_z  
0.253551 0.0594249 0.5 -17.8827 -0.444223 3.68378e-18
0.260625 0.059604 0.5 -20.0482 -0.504129 -3.85398e-18
0.268301 0.0597641 0.5 -19.7943 -0.338093 3.37337e-18
0.275825 0.0598682 0.5 -18.6713 -0.192182 -1.02115e-18
0.282831 0.059928 0.5 -18.216 -0.137472 -9.22233e-19
0.290299 0.0599719 0.5 -18.2109 -0.086578 4.82511e-35
0.298014 0.0599954 0.5 -18.1557 -0.0309975 -2.11871e-19
0.305661 0.0599931 0.5 -17.9892 0.0350933 -4.31661e-19
0.313016 0.0599637 0.5 -17.7205 0.0981753 -8.98526e-19
0.3202 0.0599102 0.5 -17.4958 0.150733 8.84075e-19
0.327394 0.0598346 0.5 -17.3291 0.200532 4.28882e-22
0.334592 0.0597382 0.5 -17.1663 0.246524 1.72506e-18
0.341788 0.059622 0.5 -17.0212 0.289884 -1.70358e-18
0.348891 0.0594882 0.5 -16.8877 0.332913 -9.93911e-24
0.355903 0.0593371 0.5 -16.7284 0.373934 -8.38498e-22
0.362912 0.0591677 0.5 -16.5625 0.411417 8.17609e-22
0.369915 0.058981 0.5 -16.4221 0.447126 -6.66141e-18
0.376908 0.0587783 0.5 -16.2909 0.480418 1.64569e-37
0.383848 0.0585616 0.5 -16.162 0.512017 -3.29414e-18
0.39071 0.0583318 0.5 -16.0137 0.543877 -1.02516e-23
0.397536 0.0580877 0.5 -15.855 0.572822 -7.97768e-22
0.404349 0.0578293 0.5 -15.7045 0.599797 3.21016e-18
0.411146 0.0575577 0.5 -15.5666 0.624917 -3.17491e-18
0.417921 0.0572738 0.5 -15.4472 0.648919 1.17549e-38
0.424635 0.05698 0.5 -15.3387 0.67354 -6.29341e-18
0.431287 0.0566758 0.5 -15.2138 0.697503 -6.23255e-18
0.437919 0.0563599 0.5 -15.0803 0.718666 1.08989e-22
0.444529 0.056033 0.5 -14.9585 0.738836 -6.09721e-18
0.451115 0.055696 0.5 -14.8489 0.757955 -4.70198e-37
0.457672 0.0553498 0.5 -14.7553 0.776473 5.97847e-18
0.464179 0.0549959 0.5 -14.6603 0.795515 -2.90954e-21
0.47064 0.0546337 0.5 -14.5491 0.813477 1.17975e-17
0.477077 0.0542621 0.5 -14.434 0.829521 5.83232e-18
0.483487 0.0538822 0.5 -14.33 0.844964 2.81987e-21
0.489866 0.0534947 0.5 -14.2355 0.859627 -2.07021e-23
0.496211 0.0531004 0.5 -14.151 0.873579 -1.13296e-17
0.50252 0.0526998 0.5 -14.071 0.888266 -1.38085e-21
0.508797 0.0522921 0.5 -13.9761 0.902623 5.55935e-18
0.515045 0.0518774 0.5 -13.875 0.914979 5.50354e-18
0.52126 0.0514563 0.5 -13.7802 0.92673 5.4454e-18
0.52744 0.0510296 0.5 -13.6928 0.937775 5.39347e-18
0.533582 0.0505981 0.5 -13.614 0.948349 -2.23344e-34
0.539695 0.0501616 0.5 -13.5449 0.959338 -1.08145e-36
0.545788 0.0497191 0.5 -13.4656 0.971019 5.21606e-18
0.551854 0.0492707 0.5 -13.3754 0.980684 -5.16357e-18
0.557885 0.0488177 0.5 -13.2876 0.989596 5.11018e-18
0.563876 0.0483607 0.5 -13.2067 0.998113 -1.17549e-36
0.569827 0.0479005 0.5 -13.1334 1.00633 1.21348e-21
0.575737 0.0474373 0.5 -13.0696 1.01449 -1.22138e-21
0.58164 0.0469687 0.5 -13.0059 1.02367 8.93376e-37
0.587536 0.0464941 0.5 -12.9297 1.03196 -4.81263e-18
0.593393 0.0460162 0.5 -12.849 1.03888 -1.46071e-22
0.599208 0.0455357 0.5 -12.773 1.04557 -7.35113e-35
0.60498 0.045053 0.5 -12.7031 1.05208 3.32845e-34
0.610706 0.0445687 0.5 -12.6383 1.0583 1.11887e-21
0.616408 0.0440814 0.5 -12.5817 1.06499 1.25281e-22
0.622117 0.043588 0.5 -12.5174 1.07233 -4.45257e-18
0.627812 0.04309 0.5 -12.4423 1.07798 -4.40355e-18
0.633463 0.0425903 0.5 -12.369 1.08314 8.71056e-18
0.639069 0.0420895 0.5 -12.3014 1.0882 8.61567e-18
0.644626 0.0415881 0.5 -12.2396 1.0931 -4.2618e-18
0.650134 0.0410868 0.5 -12.1845 1.09798 -1.64569e-37
0.655639 0.0405812 0.5 -12.1354 1.10359 -4.10138e-18
0.661165 0.0400689 0.5 -12.0777 1.10949 -8.04979e-18
0.666665 0.039554 0.5 -12.0133 1.11397 6.58277e-37
0.672117 0.0390389 0.5 -11.953 1.11842 9.4895e-22
0.677519 0.038524 0.5 -11.8992 1.12299 -9.57901e-22
0.682868 0.0380099 0.5 -11.8519 1.12763 -1.54472e-22
0.688165 0.037497 0.5 -11.8138 1.13271 3.79051e-18
0.693484 0.0369779 0.5 -11.7827 1.13907 1.36357e-34
0.698837 0.0364512 0.5 -11.7412 1.14512 8.63258e-22
0.704147 0.0359241 0.5 -11.6886 1.14942 1.3209e-22
0.709405 0.0353979 0.5 -11.6328 1.15299 -3.47899e-18
0.714609 0.0348733 0.5 -11.5768 1.15604 3.42885e-18
0.719757 0.0343505 0.5 -11.5217 1.15866 8.14944e-22
0.724855 0.0338293 0.5 -11.4719 1.16143 -3.32363e-18
0.729999 0.0332999 0.5 -11.4194 1.16485 -1.47278e-22
0.73518 0.0327625 0.5 -11.356 1.16741 -3.10339e-18
0.740306 0.0322267 0.5 -11.2892 1.16905 -7.44672e-22
0.745375 0.0316932 0.5 -11.2254 1.1706 2.99667e-18
0.750386 0.0311622 0.5 -11.1652 1.17205 2.942e-18
0.755336 0.0306343 0.5 -11.1083 1.17338 -2.88833e-18
0.76026 0.0301061 0.5 -11.0573 1.1751 2.79558e-18
0.765241 0.0295683 0.5 -11.002 1.17749 -7.09999e-36
0.770246 0.0290241 0.5 -10.9365 1.17869 -5.71958e-35
0.775191 0.0284829 0.5 -10.87 1.17932 9.37377e-35
0.780073 0.027945 0.5 -10.8063 1.17992 5.25769e-35
0.784891 0.0274108 0.5 -10.7458 1.18042 2.88324e-22
0.789645 0.0268807 0.5 -10.6888 1.18091 -2.34764e-18
0.794414 0.0263459 0.5 -10.6351 1.18192 2.20756e-18
0.799254 0.0257999 0.5 -10.5729 1.18316 2.09449e-18
0.804082 0.0252514 0.5 -10.502 1.18293 2.42108e-35
0.808843 0.0247071 0.5 -10.4325 1.1824 1.95605e-18
0.813536 0.0241673 0.5 -10.3666 1.18182 -4.59954e-22
0.81816 0.0236326 0.5 -10.3041 1.18114 3.62265e-18
0.822721 0.0231023 0.5 -10.2479 1.18075 -1.73056e-18
0.827366 0.0225594 0.5 -10.189 1.18112 -1.9567e-22
0.832084 0.0220045 0.5 -10.1174 1.1805 -2.94708e-18
0.836729 0.0214548 0.5 -10.0426 1.17887 1.39043e-18
0.841299 0.0209107 0.5 -9.97119 1.17716 -1.3053e-18
0.845793 0.0203728 0.5 -9.90339 1.1753 -1.21764e-18
0.85021 0.0198415 0.5 -9.84086 1.17356 1.41059e-37
0.854677 0.0193015 0.5 -9.78159 1.17257 -1.95252e-18
0.859239 0.0187469 0.5 -9.71097 1.17149 -1.12193e-22
0.863766 0.0181934 0.5 -9.63153 1.16877 7.64296e-19
0.868209 0.0176469 0.5 -9.55473 1.16592 8.78413e-23
0.872568 0.017108 0.5 -9.48206 1.16306 8.95109e-39
0.87684 0.0165772 0.5 -9.41379 1.16022 -0
0.881165 0.0160373 0.5 -9.34803 1.15809 1.79366e-42
0.885597 0.0154808 0.5 -9.26923 1.15578 1.46602e-23
0.889995 0.0149253 0.5 -9.18042 1.15152 -1.49912e-23
0.894296 0.0143788 0.5 -9.09644 1.14722 1.67971e-23
0.8985 0.013842 0.5 -9.01742 1.14281 2.07191e-19
0.902612 0.0133146 0.5 -8.94759 1.13889 -3.47803e-19
0.90685 0.0127685 0.5 -8.87474 1.13594 6.33841e-23
0.911199 0.0122047 0.5 -8.78335 1.13144 -6.01776e-19
0.915436 0.0116524 0.5 -8.68781 1.12543 1.52816e-18
0.919558 0.0111121 0.5 -8.59919 1.11949 -6.16336e-23
0.923564 0.0105848 0.5 -8.51856 1.11368 1.11476e-18
0.92766 0.0100432 0.5 -8.44039 1.10879 -1.12121e-22
0.931889 0.00948105 0.5 -8.34221 1.10296 -1.3442e-18
0.936032 0.00892713 0.5 -8.2328 1.09466 -1.55408e-18
0.940034 0.00838932 0.5 -8.12905 1.08613 1.13641e-22
0.943918 0.00786528 0.5 -8.03608 1.07803 1.99282e-18
0.947957 0.00731753 0.5 -7.93422 1.07049 -1.96174e-18
0.952111 0.00675118 0.5 -7.80587 1.06008 4.70198e-38
0.956082 0.0062066 0.5 -7.67358 1.04765 -1.59677e-22
0.959868 0.005685 0.5 -7.55642 1.03584 -1.42091e-18
0.963806 0.00514008 0.5 -7.43395 1.02457 2.69005e-18
0.967884 0.00457263 0.5 -7.27642 1.0099 -3.03215e-18
0.971729 0.00403453 0.5 -7.11341 0.992154 -3.45924e-18
0.97552 0.00350184 0.5 -6.96582 0.975039 -3.53621e-18
0.979458 0.0029459 0.5 -6.80569 0.959019 1.1406e-22
0.983267 0.00240536 0.5 -6.57167 0.930898 -2.13392e-18
0.98706 0.00186472 0.5 -6.45383 0.918212 -1.21788e-22
0.990882 0.00131704 0.5 -5.99698 0.859736 -4.68213e-18
0.994678 0.000770466 0.5 -6.29155 0.90246 1.39392e-22
0.99832 0.00024378 0.5 -3.65826 1.00578 -3.63507e-21
0.00133235 0.00449653 0.5 -19.2788 -65.5344 -1.18014e-39
0.00576479 0.0125392 0.5 -54.2314 -63.2296 -1.50463e-36
0.0127073 0.018847 0.5 -45.2132 -33.255 -2.3968e-17
0.0207688 0.0238748 0.5 -34.8253 -19.0665 -5.76937e-17
0.0291543 0.0279559 0.5 -28.1929 -12.4929 -7.99815e-21
0.037672 0.0313759 0.5 -23.8661 -8.93869 3.09474e-22
0.0464094 0.0343841 0.5 -20.6974 -6.7059 4.33559e-17
0.0551576 0.0370177 0.5 -18.4813 -5.27636 4.80984e-17
0.0639069 0.0393539 0.5 -16.67 -4.24164 1.01596e-16
0.0727041 0.0414595 0.5 -15.2638 -3.48983 -5.2548e-17
0.081414 0.0433437 0.5 -14.0882 -2.91825 2.77832e-17
0.090183 0.0450639 0.5 -13.1133 -2.46852 -2.7262e-17
0.098871 0.0466203 0.5 -12.2524 -2.10329 -1.07677e-21
0.107395 0.0480148 0.5 -11.5445 -1.8154 -8.88348e-22
0.116087 0.049318 0.5 -10.9274 -1.57241 8.73484e-22
0.124618 0.0504925 0.5 -10.403 -1.37228 9.33358e-22
0.132994 0.0515502 0.5 -9.99772 -1.21282 3.00383e-17
0.141535 0.0525408 0.5 -9.68879 -1.07486 2.96032e-17
0.149928 0.053435 0.5 -9.98151 -1.00859 1.5556e-17
0.158135 0.0542362 0.5 -11.4355 -1.05471 -1.33101e-22
0.166435 0.0549791 0.5 -14.1249 -1.19313 -1.47203e-17
0.174718 0.0556571 0.5 -17.1677 -1.32883 -1.52814e-37
0.182824 0.0562624 0.5 -19.7125 -1.39505 -1.49562e-17
0.190865 0.0568083 0.5 -21.1645 -1.36454 -4.50761e-22
0.198976 0.0573076 0.5 -21.675 -1.26523 -8.60958e-42
0.20712 0.0577564 0.5 -21.5798 -1.11533 -1.45738e-34
0.215524 0.0581602 0.5 -20.9671 -0.931196 -6.76562e-18
0.224086 0.0585239 0.5 -20.508 -0.824262 -6.77153e-18
0.231971 0.0588335 0.5 -20.5121 -0.777575 7.79419e-18
0.239768 0.0591111 0.5 -21.0605 -0.708321 1.07309e-22
0.246955 0.0592927 0.5 -18.8082 -0.272861 -1.81221e-22
0.00133235 -0.00449653 0.5 -19.2471 65.4173 3.00927e-36
0.00576479 -0.0125392 0.5 -53.9193 62.8425 -1.48775e-16
0.0127073 -0.018847 0.5 -44.7423 32.8931 4.67492e-17
0.0207688 -0.0238748 0.5 -34.6996 18.9836 2.90311e-17
0.0291543 -0.0279559 0.5 -28.0581 12.4254 8.25667e-34
0.037672 -0.0313759 0.5 -23.8549 8.93601 -4.83571e-39
0.0464094 -0.0343841 0.5 -20.8233 6.75271 4.72235e-39
0.0551576 -0.0370177 0.5 -18.4387 5.25956 6.77085e-36
0.0639069 -0.0393539 0.5 -16.6774 4.24239 -5.07377e-17
0.0727041 -0.0414595 0.5 -15.2875 3.49542 5.26054e-17
0.081414 -0.0433437 0.5 -14.1077 2.92144 -1.69226e-21
0.090183 -0.0450639 0.5 -13.1135 2.46725 5.45407e-17
0.098871 -0.0466203 0.5 -12.256 2.10234 5.86247e-17
0.107395 -0.0480148 0.5 -11.5327 1.81242 2.89949e-17
0.116087 -0.049318 0.5 -10.8985 1.56733 -3.76158e-36
0.124618 -0.0504925 0.5 -10.3324 1.3619 -3.04694e-17
0.132994 -0.0515502 0.5 -9.90169 1.19984 -5.97936e-17
0.141535 -0.0525408 0.5 -9.51866 1.05753 -2.94477e-17
0.149928 -0.053435 0.5 -9.25103 0.942443 -9.49114e-22
0.158135 -0.0542362 0.5 -9.37393 0.875028 -1.54244e-17
0.166435 -0.0549791 0.5 -10.4458 0.886526 1.51184e-17
0.174718 -0.0556571 0.5 -12.6248 0.971515 4.55763e-22
0.182824 -0.0562624 0.5 -15.3586 1.07647 -9.25191e-22
0.190865 -0.0568083 0.5 -17.6698 1.13149 4.53275e-22
0.198976 -0.0573076 0.5 -19.3651 1.12685 1.44341e-17
0.20712 -0.0577564 0.5 -20.4877 1.0577 -7.18935e-18
0.215524 -0.0581602 0.5 -20.8097 0.924151 6.71356e-18
0.224086 -0.0585239 0.5 -20.8234 0.837418 6.72782e-18
0.231971 -0.0588335 0.5 -20.9516 0.794414 1.18338e-22
0.239768 -0.0591111 0.5 -21.4701 0.721287 -1.04409e-22
0.246955 -0.0592927 0.5 -19.1061 0.279849 2.42598e-18
0.253478 -0.0594229 0.5 -18.1403 0.453608 -3.06133e-23
0.260394 -0.0595984 0.5 -20.2988 0.512906 2.96815e-39
0.267845 -0.0597569 0.5 -20.0692 0.353495 2.10814e-22
0.275233 -0.059862 0.5 -18.9153 0.200054 -2.50958e-22
0.282135 -0.059923 0.5 -18.4005 0.143264 -2.3047e-22
0.289403 -0.0599678 0.5 -18.3843 0.0930592 2.17657e-22
0.296942 -0.0599937 0.5 -18.3106 0.0392825 -4.70816e-38
0.304465 -0.0599955 0.5 -18.168 -0.0245307 -3.37955e-38
0.311708 -0.0599711 0.5 -17.9082 -0.0898634 1.83474e-18
0.318744 -0.0599229 0.5 -17.6587 -0.142184 1.30774e-37
0.325783 -0.0598535 0.5 -17.4918 -0.192188 3.20675e-35
0.332827 -0.0597638 0.5 -17.3356 -0.238608 1.76548e-18
0.339871 -0.0596549 0.5 -17.1856 -0.281968 3.48893e-18
0.346848 -0.0595287 0.5 -17.0492 -0.323849 8.62754e-22
0.353736 -0.0593859 0.5 -16.9072 -0.365932 -3.49887e-18
0.360596 -0.0592257 0.5 -16.7483 -0.404259 8.49047e-22
0.367453 -0.0590487 0.5 -16.5985 -0.43997 3.22336e-23
0.3743 -0.0588558 0.5 -16.465 -0.473563 -3.37665e-18
0.381124 -0.0586486 0.5 -16.3568 -0.505747 8.23532e-22
0.38787 -0.0584289 0.5 -16.2419 -0.538445 6.73776e-18
0.394554 -0.0581963 0.5 -16.103 -0.568809 -1.22251e-36
0.401228 -0.0579495 0.5 -15.9666 -0.597018 -6.58574e-18
0.407888 -0.0576896 0.5 -15.8447 -0.623762 8.00359e-22
0.41453 -0.0574175 0.5 -15.7351 -0.648971 3.64403e-37
0.421133 -0.0571349 0.5 -15.6365 -0.673093 -3.20769e-18
0.427675 -0.0568427 0.5 -15.5288 -0.698236 -7.75913e-22
0.434175 -0.0565398 0.5 -15.4046 -0.720988 7.77883e-22
0.440657 -0.0562259 0.5 -15.2887 -0.742476 -1.41059e-36
0.447118 -0.0559019 0.5 -15.1801 -0.762614 6.19717e-18
0.453553 -0.0555685 0.5 -15.0767 -0.781215 7.4386e-22
0.459952 -0.0552271 0.5 -14.987 -0.799551 6.09296e-18
0.466305 -0.054878 0.5 -14.8863 -0.818751 6.06059e-18
0.472621 -0.0545205 0.5 -14.7714 -0.83596 -1.19957e-17
0.478913 -0.0541543 0.5 -14.6569 -0.851694 1.03553e-22
0.485178 -0.0537804 0.5 -14.5505 -0.866418 -5.87741e-18
0.491413 -0.0533994 0.5 -14.4553 -0.880575 5.82113e-18
0.497615 -0.0530121 0.5 -14.3727 -0.89434 -6.99324e-22
0.503783 -0.0526186 0.5 -14.2906 -0.909336 1.39611e-21
0.509921 -0.0522183 0.5 -14.1921 -0.923062 -1.13267e-17
0.51603 -0.0518112 0.5 -14.0901 -0.935095 5.60542e-18
0.522108 -0.0513982 0.5 -13.9971 -0.946716 1.10991e-17
0.528152 -0.05098 0.5 -13.9129 -0.957807 5.49722e-18
0.534159 -0.0505573 0.5 -13.8373 -0.968417 6.59909e-22
0.54014 -0.0501296 0.5 -13.7713 -0.979612 -9.7897e-24
0.546102 -0.0496961 0.5 -13.6931 -0.991289 5.31724e-18
0.552038 -0.0492571 0.5 -13.6041 -1.00091 5.2649e-18
0.557939 -0.0488136 0.5 -13.521 -1.01019 6.3116e-22
0.563803 -0.0483664 0.5 -13.4455 -1.0191 -1.26025e-21
0.569628 -0.047916 0.5 -13.3776 -1.02769 5.07807e-22
0.575412 -0.047463 0.5 -13.3199 -1.03628 -6.13742e-22
0.58119 -0.0470047 0.5 -13.2634 -1.04577 -4.96281e-18
0.586964 -0.0465405 0.5 -13.194 -1.05466 9.88124e-24
0.5927 -0.0460731 0.5 -13.1175 -1.06208 1.18758e-21
0.598397 -0.0456031 0.5 -13.0429 -1.06899 -4.81638e-18
0.604052 -0.045131 0.5 -12.9724 -1.07553 -4.76869e-18
0.609664 -0.0446572 0.5 -12.9066 -1.08175 1.08145e-36
0.615243 -0.0441814 0.5 -12.8476 -1.08803 1.78675e-36
0.620829 -0.0436999 0.5 -12.7838 -1.09514 9.10352e-18
0.626413 -0.0432129 0.5 -12.7083 -1.10104 -3.19734e-36
0.631955 -0.0427242 0.5 -12.6318 -1.10612 -4.45586e-18
0.637454 -0.0422343 0.5 -12.5593 -1.11088 -2.82119e-37
0.642907 -0.0417437 0.5 -12.4934 -1.11559 4.36171e-18
0.648313 -0.041253 0.5 -12.4316 -1.11998 -4.31762e-18
0.653694 -0.0407603 0.5 -12.3771 -1.12464 -1.26941e-22
0.659096 -0.0402614 0.5 -12.318 -1.1302 4.98478e-22
0.664496 -0.0397577 0.5 -12.2482 -1.13446 4.0765e-18
0.669852 -0.0392536 0.5 -12.1781 -1.13815 -4.02886e-18
0.675159 -0.0387495 0.5 -12.1117 -1.14167 -2.77057e-35
0.680418 -0.0382459 0.5 -12.0501 -1.14512 -3.9342e-18
0.685626 -0.0377433 0.5 -11.9918 -1.14833 3.38179e-22
0.690816 -0.0372389 0.5 -11.9394 -1.1519 -3.7965e-18
0.696038 -0.0367272 0.5 -11.8815 -1.15617 1.88079e-37
0.701263 -0.0362109 0.5 -11.8138 -1.15915 4.17018e-34
0.706438 -0.0356954 0.5 -11.7463 -1.16166 3.57762e-18
0.711561 -0.035181 0.5 -11.6821 -1.16403 -3.5278e-18
0.716633 -0.0346682 0.5 -11.6223 -1.16634 -3.47804e-18
0.72165 -0.0341574 0.5 -11.5656 -1.16845 -3.43023e-18
0.726654 -0.0336446 0.5 -11.5143 -1.17097 3.3244e-18
0.731704 -0.0331235 0.5 -11.4571 -1.17413 1.03766e-23
0.736758 -0.032598 0.5 -11.3904 -1.17598 1.06271e-23
0.741759 -0.0320742 0.5 -11.3243 -1.17746 7.55365e-22
0.746705 -0.0315527 0.5 -11.261 -1.17878 -7.42134e-22
0.751594 -0.0310337 0.5 -11.2021 -1.18011 7.28941e-22
0.756425 -0.0305178 0.5 -11.1465 -1.18132 -7.15873e-22
0.761255 -0.029999 0.5 -11.0954 -1.18294 3.48527e-22
0.766142 -0.0294707 0.5 -11.0381 -1.1851 2.68826e-18
0.771031 -0.0289385 0.5 -10.9719 -1.18599 -2.62886e-18
0.775861 -0.0284092 0.5 -10.9065 -1.18659 -3.19204e-22
0.780632 -0.0278832 0.5 -10.8439 -1.18709 5.01502e-18
0.785341 -0.0273608 0.5 -10.7844 -1.18751 -2.44581e-18
0.789989 -0.0268423 0.5 -10.7287 -1.18797 -1.41059e-37
0.79466 -0.0263184 0.5 -10.6756 -1.18894 0
0.799401 -0.0257833 0.5 -10.6133 -1.19001 -9.40395e-38
0.804125 -0.0252465 0.5 -10.543 -1.18971 2.05955e-18
0.808785 -0.0247137 0.5 -10.4749 -1.18923 4.85599e-22
0.81338 -0.0241853 0.5 -10.4103 -1.18867 -1.91762e-18
0.817908 -0.0236617 0.5 -10.3486 -1.18795 -1.84403e-18
0.822369 -0.0231434 0.5 -10.2932 -1.18753 1.77062e-18
0.826908 -0.0226131 0.5 -10.2366 -1.18784 -1.99846e-22
0.831528 -0.0220701 0.5 -10.1672 -1.1874 3.0096e-18
0.836084 -0.0215313 0.5 -10.0931 -1.18578 -1.80023e-22
0.840568 -0.0209979 0.5 -10.0225 -1.18412 -7.17465e-43
0.844979 -0.0204704 0.5 -9.95573 -1.18236 -1.45767e-22
0.849317 -0.0199491 0.5 -9.89308 -1.18055 1.48278e-22
0.853667 -0.0194238 0.5 -9.83595 -1.17939 -1.82211e-35
0.858113 -0.0188842 0.5 -9.77028 -1.17867 0
0.862564 -0.0183407 0.5 -9.69291 -1.17622 0
0.866936 -0.0178038 0.5 -9.61675 -1.17346 -6.93876e-19
0.871227 -0.0172741 0.5 -9.54466 -1.1707 -2.93874e-38
0.875436 -0.016752 0.5 -9.47584 -1.16781 -4.78335e-19
0.879628 -0.0162295 0.5 -9.41358 -1.16554 3.52032e-19
0.88393 -0.0156905 0.5 -9.34219 -1.16377 -2.20528e-19
0.88827 -0.0151435 0.5 -9.25685 -1.16012 -2.35099e-38
0.892518 -0.014605 0.5 -9.17289 -1.15598 -1.16909e-23
0.896674 -0.0140755 0.5 -9.09391 -1.15177 4.01082e-23
0.900735 -0.0135557 0.5 -9.02039 -1.14752 -2.88141e-23
0.904824 -0.01303 0.5 -8.95381 -1.1442 4.25126e-19
0.909034 -0.0124858 0.5 -8.87348 -1.14104 1.09769e-18
0.913238 -0.0119394 0.5 -8.77821 -1.13537 8.63509e-23
0.917332 -0.0114042 0.5 -8.68769 -1.12953 8.7314e-19
0.921316 -0.010881 0.5 -8.60226 -1.12346 1.11069e-22
0.925241 -0.0103633 0.5 -8.52654 -1.11793 -7.78779e-23
0.929306 -0.00982488 0.5 -8.44175 -1.11311 1.26504e-18
0.933445 -0.00927338 0.5 -8.33576 -1.10578 -1.46488e-18
0.937451 -0.00873681 0.5 -8.22936 -1.09741 -1.68012e-18
0.941321 -0.00821597 0.5 -8.1287 -1.08879 1.90902e-18
0.945168 -0.00769601 0.5 -8.03748 -1.08089 -2.03126e-18
0.949167 -0.00715299 0.5 -7.92884 -1.07299 -2.09235e-18
0.953183 -0.00660441 0.5 -7.79739 -1.06156 2.36756e-18
0.957024 -0.006077 0.5 -7.66965 -1.04926 5.3347e-18
0.960743 -0.00556416 0.5 -7.55745 -1.03777 -1.88079e-37
0.964631 -0.00502557 0.5 -7.43096 -1.02659 -9.40395e-38
0.968598 -0.00447292 0.5 -7.27071 -1.01095 -3.18581e-18
0.972318 -0.00395183 0.5 -7.11624 -0.99387 1.81102e-18
0.976051 -0.00342699 0.5 -6.9718 -0.977232 1.12439e-22
0.979926 -0.00287974 0.5 -6.81078 -0.961049 -3.78449e-18
0.983612 -0.00235633 0.5 -6.58469 -0.933575 4.44284e-18
0.987331 -0.00182587 0.5 -6.47379 -0.921914 -4.18056e-18
0.991079 -0.00128868 0.5 -6.02223 -0.863909 9.33264e-24
0.994786 -0.000754822 0.5 -6.33511 -0.909114 4.85863e-18
0.998359 -0.000238135 0.5 -3.71542 -1.01914 -2.82458e-18
