# p  FACE_DATA 341
#  x  y  z  p
0.253551 0.0594249 0.5 -1019.21
0.260625 0.059604 0.5 -1058.67
0.268301 0.0597641 0.5 -1093.23
0.275825 0.0598682 0.5 -1074.59
0.282831 0.059928 0.5 -1045.67
0.290299 0.0599719 0.5 -1033.71
0.298014 0.0599954 0.5 -1024.35
0.305661 0.0599931 0.5 -1016.68
0.313016 0.0599637 0.5 -1005.94
0.3202 0.0599102 0.5 -992.416
0.327394 0.0598346 0.5 -980.36
0.334592 0.0597382 0.5 -968.276
0.341788 0.059622 0.5 -956.065
0.348891 0.0594882 0.5 -944.674
0.355903 0.0593371 0.5 -933.594
0.362912 0.0591677 0.5 -921.349
0.369915 0.058981 0.5 -909.041
0.376908 0.0587783 0.5 -897.242
0.383848 0.0585616 0.5 -885.742
0.39071 0.0583318 0.5 -874.831
0.397536 0.0580877 0.5 -863.141
0.404349 0.0578293 0.5 -851.521
0.411146 0.0575577 0.5 -839.774
0.417921 0.0572738 0.5 -828.227
0.424635 0.05698 0.5 -817.228
0.431287 0.0566758 0.5 -806.575
0.437919 0.0563599 0.5 -795.271
0.444529 0.056033 0.5 -783.814
0.451115 0.055696 0.5 -772.522
0.457672 0.0553498 0.5 -761.468
0.464179 0.0549959 0.5 -751.087
0.47064 0.0546337 0.5 -740.6
0.477077 0.0542621 0.5 -729.72
0.483487 0.0538822 0.5 -718.754
0.489866 0.0534947 0.5 -707.993
0.496211 0.0531004 0.5 -697.419
0.50252 0.0526998 0.5 -687.207
0.508797 0.0522921 0.5 -677.188
0.515045 0.0518774 0.5 -666.74
0.52126 0.0514563 0.5 -656.28
0.52744 0.0510296 0.5 -645.888
0.533582 0.0505981 0.5 -635.653
0.539695 0.0501616 0.5 -625.69
0.545788 0.0497191 0.5 -616.105
0.551854 0.0492707 0.5 -606.194
0.557885 0.0488177 0.5 -596.182
0.563876 0.0483607 0.5 -586.159
0.569827 0.0479005 0.5 -576.275
0.575737 0.0474373 0.5 -566.594
0.58164 0.0469687 0.5 -557.217
0.587536 0.0464941 0.5 -547.863
0.593393 0.0460162 0.5 -538.272
0.599208 0.0455357 0.5 -528.648
0.60498 0.045053 0.5 -519.1
0.610706 0.0445687 0.5 -509.71
0.616408 0.0440814 0.5 -500.441
0.622117 0.043588 0.5 -491.454
0.627812 0.04309 0.5 -482.202
0.633463 0.0425903 0.5 -472.811
0.639069 0.0420895 0.5 -463.441
0.644626 0.0415881 0.5 -454.163
0.650134 0.0410868 0.5 -445.025
0.655639 0.0405812 0.5 -436.027
0.661165 0.0400689 0.5 -427.175
0.666665 0.039554 0.5 -418.065
0.672117 0.0390389 0.5 -408.897
0.677519 0.038524 0.5 -399.767
0.682868 0.0380099 0.5 -390.731
0.688165 0.037497 0.5 -381.797
0.693484 0.0369779 0.5 -372.966
0.698837 0.0364512 0.5 -364.092
0.704147 0.0359241 0.5 -355.034
0.709405 0.0353979 0.5 -345.97
0.714609 0.0348733 0.5 -336.955
0.719757 0.0343505 0.5 -328.033
0.724855 0.0338293 0.5 -319.191
0.729999 0.0332999 0.5 -310.424
0.73518 0.0327625 0.5 -301.482
0.740306 0.0322267 0.5 -292.38
0.745375 0.0316932 0.5 -283.264
0.750386 0.0311622 0.5 -274.186
0.755336 0.0306343 0.5 -265.189
0.76026 0.0301061 0.5 -256.226
0.765241 0.0295683 0.5 -247.28
0.770246 0.0290241 0.5 -238.1
0.775191 0.0284829 0.5 -228.799
0.780073 0.027945 0.5 -219.499
0.784891 0.0274108 0.5 -210.239
0.789645 0.0268807 0.5 -201.049
0.794414 0.0263459 0.5 -191.807
0.799254 0.0257999 0.5 -182.463
0.804082 0.0252514 0.5 -172.828
0.808843 0.0247071 0.5 -163.109
0.813536 0.0241673 0.5 -153.39
0.81816 0.0236326 0.5 -143.721
0.822721 0.0231023 0.5 -134.102
0.827366 0.0225594 0.5 -124.357
0.832084 0.0220045 0.5 -114.278
0.836729 0.0214548 0.5 -103.998
0.841299 0.0209107 0.5 -93.711
0.845793 0.0203728 0.5 -83.4334
0.85021 0.0198415 0.5 -73.2205
0.854677 0.0193015 0.5 -62.8374
0.859239 0.0187469 0.5 -52.2074
0.863766 0.0181934 0.5 -41.2314
0.868209 0.0176469 0.5 -30.2098
0.872568 0.017108 0.5 -19.1921
0.87684 0.0165772 0.5 -8.24567
0.881165 0.0160373 0.5 2.97205
0.885597 0.0154808 0.5 14.5514
0.889995 0.0149253 0.5 26.5737
0.894296 0.0143788 0.5 38.6566
0.8985 0.013842 0.5 50.7031
0.902612 0.0133146 0.5 62.7211
0.90685 0.0127685 0.5 75.1463
0.911199 0.0122047 0.5 88.244
0.915436 0.0116524 0.5 101.594
0.919558 0.0111121 0.5 114.916
0.923564 0.0105848 0.5 128.153
0.92766 0.0100432 0.5 141.877
0.931889 0.00948105 0.5 156.252
0.936032 0.00892713 0.5 171.104
0.940034 0.00838932 0.5 185.854
0.943918 0.00786528 0.5 200.597
0.947957 0.00731753 0.5 216.067
0.952111 0.00675118 0.5 232.619
0.956082 0.0062066 0.5 249.243
0.959868 0.005685 0.5 265.654
0.963806 0.00514008 0.5 283.018
0.967884 0.00457263 0.5 301.645
0.971729 0.00403453 0.5 320.402
0.97552 0.00350184 0.5 339.548
0.979458 0.0029459 0.5 360.019
0.983267 0.00240536 0.5 380.699
0.98706 0.00186472 0.5 404.332
0.990882 0.00131704 0.5 424.381
0.994678 0.000770466 0.5 459.172
0.99832 0.00024378 0.5 462.325
0.00133235 0.00449653 0.5 3724.81
0.00576479 0.0125392 0.5 1725.28
0.0127073 0.018847 0.5 280.16
0.0207688 0.0238748 0.5 -336.644
0.0291543 0.0279559 0.5 -651.001
0.037672 0.0313759 0.5 -862.349
0.0464094 0.0343841 0.5 -976.083
0.0551576 0.0370177 0.5 -1065.8
0.0639069 0.0393539 0.5 -1123.82
0.0727041 0.0414595 0.5 -1161.6
0.081414 0.0433437 0.5 -1192.3
0.090183 0.0450639 0.5 -1211.39
0.098871 0.0466203 0.5 -1227.11
0.107395 0.0480148 0.5 -1234.75
0.116087 0.049318 0.5 -1242.47
0.124618 0.0504925 0.5 -1244.91
0.132994 0.0515502 0.5 -1246.54
0.141535 0.0525408 0.5 -1248.1
0.149928 0.053435 0.5 -1248.51
0.158135 0.0542362 0.5 -1247.4
0.166435 0.0549791 0.5 -1235.44
0.174718 0.0556571 0.5 -1214.78
0.182824 0.0562624 0.5 -1190.22
0.190865 0.0568083 0.5 -1169.23
0.198976 0.0573076 0.5 -1154.55
0.20712 0.0577564 0.5 -1147.4
0.215524 0.0581602 0.5 -1139.91
0.224086 0.0585239 0.5 -1115.09
0.231971 0.0588335 0.5 -1109.41
0.239768 0.0591111 0.5 -1111.6
0.246955 0.0592927 0.5 -1155.12
0.00133235 -0.00449653 0.5 3725.35
0.00576479 -0.0125392 0.5 1734.36
0.0127073 -0.018847 0.5 272.158
0.0207688 -0.0238748 0.5 -339.108
0.0291543 -0.0279559 0.5 -653.339
0.037672 -0.0313759 0.5 -851.957
0.0464094 -0.0343841 0.5 -985.249
0.0551576 -0.0370177 0.5 -1068.35
0.0639069 -0.0393539 0.5 -1122.64
0.0727041 -0.0414595 0.5 -1163.52
0.081414 -0.0433437 0.5 -1193.03
0.090183 -0.0450639 0.5 -1212.7
0.098871 -0.0466203 0.5 -1226.88
0.107395 -0.0480148 0.5 -1235.1
0.116087 -0.049318 0.5 -1241.32
0.124618 -0.0504925 0.5 -1244.06
0.132994 -0.0515502 0.5 -1243.95
0.141535 -0.0525408 0.5 -1244.83
0.149928 -0.053435 0.5 -1242.11
0.158135 -0.0542362 0.5 -1242.37
0.166435 -0.0549791 0.5 -1239.96
0.174718 -0.0556571 0.5 -1235.61
0.182824 -0.0562624 0.5 -1218.61
0.190865 -0.0568083 0.5 -1194.8
0.198976 -0.0573076 0.5 -1167.2
0.20712 -0.0577564 0.5 -1148.12
0.215524 -0.0581602 0.5 -1133.15
0.224086 -0.0585239 0.5 -1107.7
0.231971 -0.0588335 0.5 -1102.39
0.239768 -0.0591111 0.5 -1105.67
0.246955 -0.0592927 0.5 -1152.24
0.253478 -0.0594229 0.5 -1015.12
0.260394 -0.0595984 0.5 -1055.22
0.267845 -0.0597569 0.5 -1090.25
0.275233 -0.059862 0.5 -1074.95
0.282135 -0.059923 0.5 -1045.12
0.289403 -0.0599678 0.5 -1033.36
0.296942 -0.0599937 0.5 -1024.26
0.304465 -0.0599955 0.5 -1016.05
0.311708 -0.0599711 0.5 -1007.22
0.318744 -0.0599229 0.5 -993.82
0.325783 -0.0598535 0.5 -981.743
0.332827 -0.0597638 0.5 -970.163
0.339871 -0.0596549 0.5 -958.46
0.346848 -0.0595287 0.5 -947.05
0.353736 -0.0593859 0.5 -936.086
0.360596 -0.0592257 0.5 -924.696
0.367453 -0.0590487 0.5 -912.75
0.3743 -0.0588558 0.5 -900.952
0.381124 -0.0586486 0.5 -889.332
0.38787 -0.0584289 0.5 -878.849
0.394554 -0.0581963 0.5 -867.783
0.401228 -0.0579495 0.5 -856.2
0.407888 -0.0576896 0.5 -844.649
0.41453 -0.0574175 0.5 -833.367
0.421133 -0.0571349 0.5 -822.447
0.427675 -0.0568427 0.5 -812.03
0.434175 -0.0565398 0.5 -801.189
0.440657 -0.0562259 0.5 -789.98
0.447118 -0.0559019 0.5 -779.031
0.453553 -0.0555685 0.5 -768.092
0.459952 -0.0552271 0.5 -757.403
0.466305 -0.054878 0.5 -747.413
0.472621 -0.0545205 0.5 -736.938
0.478913 -0.0541543 0.5 -726.418
0.485178 -0.0537804 0.5 -715.733
0.491413 -0.0533994 0.5 -705.2
0.497615 -0.0530121 0.5 -694.918
0.503783 -0.0526186 0.5 -685.088
0.509921 -0.0522183 0.5 -675.272
0.51603 -0.0518112 0.5 -665.029
0.522108 -0.0513982 0.5 -654.741
0.528152 -0.05098 0.5 -644.576
0.534159 -0.0505573 0.5 -634.605
0.54014 -0.0501296 0.5 -624.912
0.546102 -0.0496961 0.5 -615.612
0.552038 -0.0492571 0.5 -605.861
0.557939 -0.0488136 0.5 -596.006
0.563803 -0.0483664 0.5 -586.22
0.569628 -0.047916 0.5 -576.552
0.575412 -0.047463 0.5 -567.099
0.58119 -0.0470047 0.5 -557.959
0.586964 -0.0465405 0.5 -548.8
0.5927 -0.0460731 0.5 -539.41
0.598397 -0.0456031 0.5 -530.015
0.604052 -0.045131 0.5 -520.68
0.609664 -0.0446572 0.5 -511.491
0.615243 -0.0441814 0.5 -502.452
0.620829 -0.0436999 0.5 -493.636
0.626413 -0.0432129 0.5 -484.643
0.631955 -0.0427242 0.5 -475.479
0.637454 -0.0422343 0.5 -466.332
0.642907 -0.0417437 0.5 -457.217
0.648313 -0.041253 0.5 -448.3
0.653694 -0.0407603 0.5 -439.442
0.659096 -0.0402614 0.5 -430.808
0.664496 -0.0397577 0.5 -421.975
0.669852 -0.0392536 0.5 -413.03
0.675159 -0.0387495 0.5 -404.102
0.680418 -0.0382459 0.5 -395.232
0.685626 -0.0377433 0.5 -386.502
0.690816 -0.0372389 0.5 -377.812
0.696038 -0.0367272 0.5 -369.259
0.701263 -0.0362109 0.5 -360.478
0.706438 -0.0356954 0.5 -351.603
0.711561 -0.035181 0.5 -342.744
0.716633 -0.0346682 0.5 -333.931
0.72165 -0.0341574 0.5 -325.244
0.726654 -0.0336446 0.5 -316.571
0.731704 -0.0331235 0.5 -307.979
0.736758 -0.032598 0.5 -299.139
0.741759 -0.0320742 0.5 -290.209
0.746705 -0.0315527 0.5 -281.3
0.751594 -0.0310337 0.5 -272.414
0.756425 -0.0305178 0.5 -263.658
0.761255 -0.029999 0.5 -254.872
0.766142 -0.0294707 0.5 -246.1
0.771031 -0.0289385 0.5 -237.068
0.775861 -0.0284092 0.5 -227.965
0.780632 -0.0278832 0.5 -218.875
0.785341 -0.0273608 0.5 -209.818
0.789989 -0.0268423 0.5 -200.84
0.79466 -0.0263184 0.5 -191.806
0.799401 -0.0257833 0.5 -182.656
0.804125 -0.0252465 0.5 -173.208
0.808785 -0.0247137 0.5 -163.701
0.81338 -0.0241853 0.5 -154.198
0.817908 -0.0236617 0.5 -144.745
0.822369 -0.0231434 0.5 -135.344
0.826908 -0.0226131 0.5 -125.838
0.831528 -0.0220701 0.5 -116.02
0.836084 -0.0215313 0.5 -105.977
0.840568 -0.0209979 0.5 -95.9069
0.844979 -0.0204704 0.5 -85.8537
0.849317 -0.0199491 0.5 -75.8601
0.853667 -0.0194238 0.5 -65.7536
0.858113 -0.0188842 0.5 -55.4671
0.862564 -0.0183407 0.5 -44.7884
0.866936 -0.0178038 0.5 -34.0087
0.871227 -0.0172741 0.5 -23.2322
0.875436 -0.016752 0.5 -12.5049
0.879628 -0.0162295 0.5 -1.65176
0.88393 -0.0156905 0.5 9.46162
0.88827 -0.0151435 0.5 21.1427
0.892518 -0.014605 0.5 32.9428
0.896674 -0.0140755 0.5 44.7467
0.900735 -0.0135557 0.5 56.4996
0.904824 -0.01303 0.5 68.5129
0.909034 -0.0124858 0.5 80.9035
0.913238 -0.0119394 0.5 93.9001
0.917332 -0.0114042 0.5 106.96
0.921316 -0.010881 0.5 119.951
0.925241 -0.0103633 0.5 133.043
0.929306 -0.00982488 0.5 146.628
0.933445 -0.00927338 0.5 161.032
0.937451 -0.00873681 0.5 175.56
0.941321 -0.00821597 0.5 189.965
0.945168 -0.00769601 0.5 204.68
0.949167 -0.00715299 0.5 220.055
0.953183 -0.00660441 0.5 236.376
0.957024 -0.006077 0.5 252.605
0.960743 -0.00556416 0.5 268.874
0.964631 -0.00502557 0.5 286.05
0.968598 -0.00447292 0.5 304.496
0.972318 -0.00395183 0.5 322.808
0.976051 -0.00342699 0.5 341.758
0.979926 -0.00287974 0.5 362.066
0.983612 -0.00235633 0.5 382.322
0.987331 -0.00182587 0.5 405.599
0.991079 -0.00128868 0.5 425.438
0.994786 -0.000754822 0.5 459.707
0.998359 -0.000238135 0.5 462.613
