# wallShearStress  FACE_DATA 341
#  x  y  z  wallShearStress_x  wallShearStress_y  wallShearStress_z  
0.253551 0.0594249 0.5 -18.1542 -0.451034 3.65572e-18
0.260625 0.059604 0.5 -20.3153 -0.510838 -3.82795e-18
0.268301 0.0597641 0.5 -20.0458 -0.34235 3.35398e-18
0.275825 0.0598682 0.5 -18.8981 -0.194475 -1.01524e-18
0.282831 0.059928 0.5 -18.4251 -0.138994 -9.16665e-19
0.290299 0.0599719 0.5 -18.4052 -0.0874358 5.51175e-35
0.298014 0.0599954 0.5 -18.3341 -0.0312463 -2.10632e-19
0.305661 0.0599931 0.5 -18.1523 0.0354613 -4.29161e-19
0.313016 0.0599637 0.5 -17.8703 0.0990593 -8.93324e-19
0.3202 0.0599102 0.5 -17.634 0.151974 8.78919e-19
0.327394 0.0598346 0.5 -17.4573 0.202057 4.2637e-22
0.334592 0.0597382 0.5 -17.2865 0.248289 1.71479e-18
0.341788 0.059622 0.5 -17.1354 0.291866 -1.69329e-18
0.348891 0.0594882 0.5 -16.9964 0.335094 -9.94522e-24
0.355903 0.0593371 0.5 -16.8317 0.376278 -8.33335e-22
0.362912 0.0591677 0.5 -16.6607 0.413888 8.1241e-22
0.369915 0.058981 0.5 -16.5155 0.449694 -6.61868e-18
0.376908 0.0587783 0.5 -16.3764 0.482952 2.93874e-37
0.383848 0.0585616 0.5 -16.2412 0.514525 -3.27223e-18
0.39071 0.0583318 0.5 -16.0896 0.546451 -1.03026e-23
0.397536 0.0580877 0.5 -15.9295 0.575509 -7.92285e-22
0.404349 0.0578293 0.5 -15.7779 0.602594 3.18732e-18
0.411146 0.0575577 0.5 -15.6384 0.627797 -3.15179e-18
0.417921 0.0572738 0.5 -15.5172 0.651852 2.70364e-37
0.424635 0.05698 0.5 -15.4067 0.676514 -6.2455e-18
0.431287 0.0566758 0.5 -15.2797 0.700502 -6.18405e-18
0.437919 0.0563599 0.5 -15.1442 0.721679 1.09668e-22
0.444529 0.056033 0.5 -15.0207 0.741869 -6.0473e-18
0.451115 0.055696 0.5 -14.9095 0.761007 -1.50463e-36
0.457672 0.0553498 0.5 -14.8143 0.779533 5.92691e-18
0.464179 0.0549959 0.5 -14.7175 0.798568 -2.88381e-21
0.47064 0.0546337 0.5 -14.6041 0.816498 1.16905e-17
0.477077 0.0542621 0.5 -14.4867 0.832486 5.77804e-18
0.483487 0.0538822 0.5 -14.3803 0.847861 2.79291e-21
0.489866 0.0534947 0.5 -14.2835 0.862449 -2.08697e-23
0.496211 0.0531004 0.5 -14.1969 0.876325 -1.12153e-17
0.50252 0.0526998 0.5 -14.1148 0.890942 -1.36673e-21
0.508797 0.0522921 0.5 -14.0181 0.905235 5.50012e-18
0.515045 0.0518774 0.5 -13.9153 0.917527 5.4432e-18
0.52126 0.0514563 0.5 -13.8189 0.929214 5.38393e-18
0.52744 0.0510296 0.5 -13.7298 0.940185 5.33076e-18
0.533582 0.0505981 0.5 -13.6493 0.950674 7.55608e-35
0.539695 0.0501616 0.5 -13.5783 0.961565 1.41059e-37
0.545788 0.0497191 0.5 -13.497 0.973136 5.14986e-18
0.551854 0.0492707 0.5 -13.4047 0.982677 -5.09605e-18
0.557885 0.0488177 0.5 -13.3147 0.991458 5.04128e-18
0.563876 0.0483607 0.5 -13.2319 0.999843 -2.06887e-36
0.569827 0.0479005 0.5 -13.1566 1.00793 1.1958e-21
0.575737 0.0474373 0.5 -13.0909 1.01596 -1.20359e-21
0.58164 0.0469687 0.5 -13.0254 1.025 2.82119e-37
0.587536 0.0464941 0.5 -12.9473 1.03316 -4.7368e-18
0.593393 0.0460162 0.5 -12.8649 1.03995 -1.48174e-22
0.599208 0.0455357 0.5 -12.7873 1.0465 2.83368e-35
0.60498 0.045053 0.5 -12.7157 1.05289 1.58592e-34
0.610706 0.0445687 0.5 -12.6492 1.05896 1.09842e-21
0.616408 0.0440814 0.5 -12.5909 1.06551 1.27357e-22
0.622117 0.043588 0.5 -12.5247 1.07269 -4.36697e-18
0.627812 0.04309 0.5 -12.4477 1.07817 -4.31592e-18
0.633463 0.0425903 0.5 -12.3723 1.08315 8.53102e-18
0.639069 0.0420895 0.5 -12.3027 1.08802 8.43164e-18
0.644626 0.0415881 0.5 -12.2389 1.09273 -4.16743e-18
0.650134 0.0410868 0.5 -12.1817 1.09741 -1.99834e-37
0.655639 0.0405812 0.5 -12.1305 1.10281 -4.00373e-18
0.661165 0.0400689 0.5 -12.0707 1.10849 -7.85094e-18
0.666665 0.039554 0.5 -12.0041 1.11276 -1.41059e-36
0.672117 0.0390389 0.5 -11.9416 1.11698 9.23139e-22
0.677519 0.038524 0.5 -11.8857 1.12133 -9.31848e-22
0.682868 0.0380099 0.5 -11.8363 1.12575 -1.58083e-22
0.688165 0.037497 0.5 -11.796 1.1306 3.67671e-18
0.693484 0.0369779 0.5 -11.7627 1.13672 2.69376e-34
0.698837 0.0364512 0.5 -11.7193 1.14256 8.34531e-22
0.704147 0.0359241 0.5 -11.6649 1.14664 1.35589e-22
0.709405 0.0353979 0.5 -11.6071 1.14998 -3.35551e-18
0.714609 0.0348733 0.5 -11.5489 1.15278 3.30172e-18
0.719757 0.0343505 0.5 -11.4915 1.15514 7.82661e-22
0.724855 0.0338293 0.5 -11.4393 1.15762 -3.189e-18
0.729999 0.0332999 0.5 -11.3842 1.16074 -1.51921e-22
0.73518 0.0327625 0.5 -11.3181 1.16299 -2.96548e-18
0.740306 0.0322267 0.5 -11.2486 1.16429 -7.09934e-22
0.745375 0.0316932 0.5 -11.1819 1.1655 2.84983e-18
0.750386 0.0311622 0.5 -11.1188 1.1666 2.79041e-18
0.755336 0.0306343 0.5 -11.059 1.16757 -2.73172e-18
0.76026 0.0301061 0.5 -11.0049 1.1689 2.63592e-18
0.765241 0.0295683 0.5 -10.9463 1.17089 -3.43244e-36
0.770246 0.0290241 0.5 -10.8775 1.17166 -7.64543e-35
0.775191 0.0284829 0.5 -10.8075 1.17186 1.07966e-34
0.780073 0.027945 0.5 -10.7403 1.17201 7.8442e-35
0.784891 0.0274108 0.5 -10.6761 1.17205 2.65706e-22
0.789645 0.0268807 0.5 -10.6153 1.17205 -2.15769e-18
0.794414 0.0263459 0.5 -10.5577 1.17256 2.01715e-18
0.799254 0.0257999 0.5 -10.4914 1.17327 1.90136e-18
0.804082 0.0252514 0.5 -10.4163 1.17247 -8.76037e-35
0.808843 0.0247071 0.5 -10.3424 1.17137 1.74778e-18
0.813536 0.0241673 0.5 -10.272 1.17019 -4.07105e-22
0.81816 0.0236326 0.5 -10.2048 1.16888 3.17253e-18
0.822721 0.0231023 0.5 -10.1436 1.16784 -1.4973e-18
0.827366 0.0225594 0.5 -10.0794 1.1675 -1.68179e-22
0.832084 0.0220045 0.5 -10.0023 1.16612 -2.47163e-18
0.836729 0.0214548 0.5 -9.92168 1.1637 1.14255e-18
0.841299 0.0209107 0.5 -9.84424 1.16117 -1.0467e-18
0.845793 0.0203728 0.5 -9.77017 1.15847 -9.47666e-19
0.85021 0.0198415 0.5 -9.70107 1.15583 0
0.854677 0.0193015 0.5 -9.63472 1.15389 -1.39579e-18
0.859239 0.0187469 0.5 -9.55657 1.15175 -7.78198e-23
0.863766 0.0181934 0.5 -9.46929 1.14794 4.65121e-19
0.868209 0.0176469 0.5 -9.38429 1.14395 5.00799e-23
0.872568 0.017108 0.5 -9.30302 1.1399 3.14106e-39
0.87684 0.0165772 0.5 -9.22573 1.13581 -0
0.881165 0.0160373 0.5 -9.15019 1.13232 -2.86986e-42
0.885597 0.0154808 0.5 -9.06086 1.1285 -2.86438e-23
0.889995 0.0149253 0.5 -8.96097 1.12266 2.92607e-23
0.894296 0.0143788 0.5 -8.86527 1.11671 6.49525e-23
0.8985 0.013842 0.5 -8.77381 1.11055 6.17096e-19
0.902612 0.0133146 0.5 -8.6907 1.10476 -7.79468e-19
0.90685 0.0127685 0.5 -8.60314 1.09972 1.14562e-22
0.911199 0.0122047 0.5 -8.49564 1.09289 -1.0393e-18
0.915436 0.0116524 0.5 -8.3831 1.08444 2.45789e-18
0.919558 0.0111121 0.5 -8.2764 1.07592 -9.23287e-23
0.923564 0.0105848 0.5 -8.17662 1.06739 1.64108e-18
0.92766 0.0100432 0.5 -8.07731 1.05948 -1.25757e-22
0.931889 0.00948105 0.5 -7.9559 1.05025 -1.87424e-18
0.936032 0.00892713 0.5 -7.82202 1.03838 -2.12303e-18
0.940034 0.00838932 0.5 -7.69242 1.02611 1.51653e-22
0.943918 0.00786528 0.5 -7.57208 1.01408 2.6426e-18
0.947957 0.00731753 0.5 -7.4397 1.00205 -2.57226e-18
0.952111 0.00675118 0.5 -7.27761 0.98662 1.41059e-37
0.956082 0.0062066 0.5 -7.10967 0.968934 -2.04759e-22
0.959868 0.005685 0.5 -6.95497 0.951663 -1.81611e-18
0.963806 0.00514008 0.5 -6.79007 0.934114 3.41805e-18
0.967884 0.00457263 0.5 -6.58422 0.912132 -3.83299e-18
0.971729 0.00403453 0.5 -6.36968 0.886741 -4.35322e-18
0.97552 0.00350184 0.5 -6.16483 0.86128 -4.43408e-18
0.979458 0.0029459 0.5 -5.9364 0.834942 1.42485e-22
0.983267 0.00240536 0.5 -5.62788 0.795676 -2.66337e-18
0.98706 0.00186472 0.5 -5.41426 0.768862 -1.51805e-22
0.990882 0.00131704 0.5 -4.86243 0.695808 -5.83895e-18
0.994678 0.000770466 0.5 -4.98345 0.713125 1.73186e-22
0.99832 0.00024378 0.5 -2.22189 0.807584 -3.7198e-21
0.00133235 0.00449653 0.5 -19.2735 -65.5159 9.197e-41
0.00576479 0.0125392 0.5 -54.2074 -63.201 -1.50463e-36
0.0127073 0.018847 0.5 -45.1963 -33.2423 -2.41484e-17
0.0207688 0.0238748 0.5 -34.8122 -19.0599 -5.73291e-17
0.0291543 0.0279559 0.5 -28.1811 -12.4882 -7.97903e-21
0.037672 0.0313759 0.5 -23.855 -8.93454 3.08606e-22
0.0464094 0.0343841 0.5 -20.6878 -6.70214 4.32339e-17
0.0551576 0.0370177 0.5 -18.4715 -5.27291 4.79659e-17
0.0639069 0.0393539 0.5 -16.654 -4.23745 1.01335e-16
0.0727041 0.0414595 0.5 -15.2461 -3.48607 -5.23981e-17
0.081414 0.0433437 0.5 -14.0721 -2.9151 2.77007e-17
0.090183 0.0450639 0.5 -13.0932 -2.46444 -2.71745e-17
0.098871 0.0466203 0.5 -12.2257 -2.09817 -1.06797e-21
0.107395 0.0480148 0.5 -11.5057 -1.80885 -8.84672e-22
0.116087 0.049318 0.5 -10.8639 -1.5628 8.69869e-22
0.124618 0.0504925 0.5 -10.2948 -1.35709 9.27489e-22
0.132994 0.0515502 0.5 -9.84404 -1.19315 2.98223e-17
0.141535 0.0525408 0.5 -9.44613 -1.04977 2.93614e-17
0.149928 0.053435 0.5 -9.11844 -0.928601 1.55101e-17
0.158135 0.0542362 0.5 -8.9433 -0.83239 -4.78317e-23
0.166435 0.0549791 0.5 -9.51869 -0.80482 -1.50262e-17
0.174718 0.0556571 0.5 -10.9988 -0.845367 -2.46854e-37
0.182824 0.0562624 0.5 -13.5288 -0.948675 -1.51271e-17
0.190865 0.0568083 0.5 -16.6036 -1.06265 -4.53417e-22
0.198976 0.0573076 0.5 -19.3374 -1.12388 8.60958e-42
0.20712 0.0577564 0.5 -20.8464 -1.0754 3.44208e-34
0.215524 0.0581602 0.5 -21.0154 -0.932912 -6.69937e-18
0.224086 0.0585239 0.5 -20.8265 -0.837156 -6.71096e-18
0.231971 0.0588335 0.5 -20.8841 -0.791837 7.73116e-18
0.239768 0.0591111 0.5 -21.3984 -0.719797 1.06614e-22
0.246955 0.0592927 0.5 -19.1058 -0.277194 -1.80042e-22
0.00133235 -0.00449653 0.5 -19.2395 65.3919 0
0.00576479 -0.0125392 0.5 -53.8969 62.817 -1.48833e-16
0.0127073 -0.018847 0.5 -44.7224 32.8787 4.69676e-17
0.0207688 -0.0238748 0.5 -34.6844 18.9739 2.88869e-17
0.0291543 -0.0279559 0.5 -28.0456 12.4197 -1.09086e-34
0.037672 -0.0313759 0.5 -23.8435 8.93153 7.86054e-39
0.0464094 -0.0343841 0.5 -20.8121 6.74719 9.42605e-39
0.0551576 -0.0370177 0.5 -18.4255 5.25529 8.27548e-36
0.0639069 -0.0393539 0.5 -16.6633 4.23917 -5.06148e-17
0.0727041 -0.0414595 0.5 -15.274 3.49275 5.24852e-17
0.081414 -0.0433437 0.5 -14.0926 2.91831 -1.68834e-21
0.090183 -0.0450639 0.5 -13.0951 2.4636 5.44082e-17
0.098871 -0.0466203 0.5 -12.2327 2.09811 5.84687e-17
0.107395 -0.0480148 0.5 -11.5014 1.8072 2.89089e-17
0.116087 -0.049318 0.5 -10.8533 1.56045 -3.00927e-36
0.124618 -0.0504925 0.5 -10.2619 1.3522 -3.03526e-17
0.132994 -0.0515502 0.5 -9.78537 1.18529 -5.95245e-17
0.141535 -0.0525408 0.5 -9.337 1.03664 -2.92826e-17
0.149928 -0.053435 0.5 -8.98143 0.914138 -9.42845e-22
0.158135 -0.0542362 0.5 -8.68118 0.811345 -1.52968e-17
0.166435 -0.0549791 0.5 -8.432 0.720107 1.50814e-17
0.174718 -0.0556571 0.5 -8.4735 0.656819 4.63726e-22
0.182824 -0.0562624 0.5 -9.28194 0.650557 -9.44086e-22
0.190865 -0.0568083 0.5 -11.0258 0.700475 4.63885e-22
0.198976 -0.0573076 0.5 -13.9766 0.805369 1.4591e-17
0.20712 -0.0577564 0.5 -17.2468 0.884216 -7.17565e-18
0.215524 -0.0581602 0.5 -19.4684 0.861453 6.65937e-18
0.224086 -0.0585239 0.5 -20.549 0.825326 6.66691e-18
0.231971 -0.0588335 0.5 -21.0977 0.799676 1.17374e-22
0.239768 -0.0591111 0.5 -21.7551 0.730794 -1.0356e-22
0.246955 -0.0592927 0.5 -19.4078 0.284134 2.41051e-18
0.253478 -0.0594229 0.5 -18.4316 0.460931 -3.04016e-23
0.260394 -0.0595984 0.5 -20.5899 0.520279 5.21669e-39
0.267845 -0.0597569 0.5 -20.3556 0.358501 2.09564e-22
0.275233 -0.059862 0.5 -19.1919 0.202931 -2.49471e-22
0.282135 -0.059923 0.5 -18.6749 0.145338 -2.29013e-22
0.289403 -0.0599678 0.5 -18.6573 0.0943756 2.16281e-22
0.296942 -0.0599937 0.5 -18.5769 0.0397897 -2.52627e-38
0.304465 -0.0599955 0.5 -18.4239 -0.024939 -6.83256e-38
0.311708 -0.0599711 0.5 -18.1503 -0.0911515 1.82356e-18
0.318744 -0.0599229 0.5 -17.8853 -0.144086 1.30774e-37
0.325783 -0.0598535 0.5 -17.7025 -0.194572 3.10272e-35
0.332827 -0.0597638 0.5 -17.5305 -0.241351 1.75464e-18
0.339871 -0.0596549 0.5 -17.3656 -0.28498 3.46737e-18
0.346848 -0.0595287 0.5 -17.2148 -0.327059 8.57406e-22
0.353736 -0.0593859 0.5 -17.0583 -0.369265 -3.47704e-18
0.360596 -0.0592257 0.5 -16.8847 -0.407611 8.43737e-22
0.367453 -0.0590487 0.5 -16.7211 -0.443274 3.20943e-23
0.3743 -0.0588558 0.5 -16.5751 -0.476775 -3.35513e-18
0.381124 -0.0586486 0.5 -16.4557 -0.508838 8.18256e-22
0.38787 -0.0584289 0.5 -16.3305 -0.541404 6.69392e-18
0.394554 -0.0581963 0.5 -16.1822 -0.571619 -1.22251e-36
0.401228 -0.0579495 0.5 -16.0372 -0.59967 -6.54155e-18
0.407888 -0.0576896 0.5 -15.9075 -0.626246 7.94946e-22
0.41453 -0.0574175 0.5 -15.7906 -0.651271 -5.75992e-37
0.421133 -0.0571349 0.5 -15.6853 -0.675201 -3.18515e-18
0.427675 -0.0568427 0.5 -15.5714 -0.700155 -7.7033e-22
0.434175 -0.0565398 0.5 -15.4414 -0.722704 7.72287e-22
0.440657 -0.0562259 0.5 -15.3204 -0.743994 -1.97483e-36
0.447118 -0.0559019 0.5 -15.2084 -0.764003 6.15036e-18
0.453553 -0.0555685 0.5 -15.1031 -0.78255 7.38048e-22
0.459952 -0.0552271 0.5 -15.0112 -0.800801 6.04481e-18
0.466305 -0.054878 0.5 -14.9075 -0.81987 6.01167e-18
0.472621 -0.0545205 0.5 -14.7894 -0.836921 -1.18966e-17
0.478913 -0.0541543 0.5 -14.6717 -0.852495 1.04076e-22
0.485178 -0.0537804 0.5 -14.5624 -0.867062 -5.82654e-18
0.491413 -0.0533994 0.5 -14.4644 -0.881066 5.76952e-18
0.497615 -0.0530121 0.5 -14.3794 -0.894683 -6.92894e-22
0.503783 -0.0526186 0.5 -14.2949 -0.909536 1.38312e-21
0.509921 -0.0522183 0.5 -14.1944 -0.923119 -1.12186e-17
0.51603 -0.0518112 0.5 -14.0905 -0.935014 5.55049e-18
0.522108 -0.0513982 0.5 -13.9957 -0.946512 1.09872e-17
0.528152 -0.05098 0.5 -13.91 -0.957491 5.44023e-18
0.534159 -0.0505573 0.5 -13.8331 -0.967999 6.52769e-22
0.54014 -0.0501296 0.5 -13.7659 -0.979099 -9.88796e-24
0.546102 -0.0496961 0.5 -13.6866 -0.990681 5.2572e-18
0.552038 -0.0492571 0.5 -13.5966 -1.00021 5.20364e-18
0.557939 -0.0488136 0.5 -13.5125 -1.00939 6.23467e-22
0.563803 -0.0483664 0.5 -13.436 -1.01822 -1.24465e-21
0.569628 -0.047916 0.5 -13.3672 -1.02672 4.984e-22
0.575412 -0.047463 0.5 -13.3089 -1.03525 -6.05522e-22
0.58119 -0.0470047 0.5 -13.2507 -1.04458 -4.89528e-18
0.586964 -0.0465405 0.5 -13.1785 -1.05323 1.00121e-23
0.5927 -0.0460731 0.5 -13.0998 -1.06044 1.17036e-21
0.598397 -0.0456031 0.5 -13.0242 -1.06724 -4.74413e-18
0.604052 -0.045131 0.5 -12.9534 -1.07372 -4.69464e-18
0.609664 -0.0446572 0.5 -12.8873 -1.0799 1.55165e-36
0.615243 -0.0441814 0.5 -12.8281 -1.08614 1.88079e-36
0.620829 -0.0436999 0.5 -12.7641 -1.0932 8.9467e-18
0.626413 -0.0432129 0.5 -12.6881 -1.09904 -3.19734e-36
0.631955 -0.0427242 0.5 -12.6112 -1.10405 -4.37342e-18
0.637454 -0.0422343 0.5 -12.5382 -1.10874 1.31655e-36
0.642907 -0.0417437 0.5 -12.4716 -1.11337 4.2749e-18
0.648313 -0.041253 0.5 -12.4091 -1.11767 -4.22847e-18
0.653694 -0.0407603 0.5 -12.3538 -1.12223 -1.29473e-22
0.659096 -0.0402614 0.5 -12.2938 -1.12768 4.87182e-22
0.664496 -0.0397577 0.5 -12.223 -1.13183 3.98234e-18
0.669852 -0.0392536 0.5 -12.152 -1.13539 -3.93212e-18
0.675159 -0.0387495 0.5 -12.0846 -1.13879 2.32477e-34
0.680418 -0.0382459 0.5 -12.022 -1.14211 -3.832e-18
0.685626 -0.0377433 0.5 -11.9626 -1.14519 3.22211e-22
0.690816 -0.0372389 0.5 -11.9091 -1.14862 -3.68967e-18
0.696038 -0.0367272 0.5 -11.85 -1.15274 -7.52316e-37
0.701263 -0.0362109 0.5 -11.7811 -1.15557 1.0081e-34
0.706438 -0.0356954 0.5 -11.7123 -1.15792 3.46355e-18
0.711561 -0.035181 0.5 -11.6468 -1.16012 -3.41035e-18
0.716633 -0.0346682 0.5 -11.5856 -1.16225 -3.35708e-18
0.72165 -0.0341574 0.5 -11.5273 -1.16418 -3.30555e-18
0.726654 -0.0336446 0.5 -11.4744 -1.1665 3.19804e-18
0.731704 -0.0331235 0.5 -11.4155 -1.16943 1.06904e-23
0.736758 -0.032598 0.5 -11.3469 -1.17104 1.09505e-23
0.741759 -0.0320742 0.5 -11.2788 -1.17227 7.22293e-22
0.746705 -0.0315527 0.5 -11.2134 -1.17333 -7.08005e-22
0.751594 -0.0310337 0.5 -11.1523 -1.17438 6.93705e-22
0.756425 -0.0305178 0.5 -11.0943 -1.17529 -6.79476e-22
0.761255 -0.029999 0.5 -11.0407 -1.1766 3.3035e-22
0.766142 -0.0294707 0.5 -10.9807 -1.17842 2.53645e-18
0.771031 -0.0289385 0.5 -10.9118 -1.17895 -2.47192e-18
0.775861 -0.0284092 0.5 -10.8435 -1.17919 -2.99595e-22
0.780632 -0.0278832 0.5 -10.7779 -1.17929 4.6789e-18
0.785341 -0.0273608 0.5 -10.7152 -1.17931 -2.27178e-18
0.789989 -0.0268423 0.5 -10.6562 -1.17934 3.76158e-37
0.79466 -0.0263184 0.5 -10.5996 -1.17986 0
0.799401 -0.0257833 0.5 -10.5336 -1.18045 -1.41059e-37
0.804125 -0.0252465 0.5 -10.4596 -1.17965 1.86934e-18
0.808785 -0.0247137 0.5 -10.3875 -1.17864 4.37366e-22
0.81338 -0.0241853 0.5 -10.3188 -1.17754 -1.71236e-18
0.817908 -0.0236617 0.5 -10.2528 -1.17624 -1.6307e-18
0.822369 -0.0231434 0.5 -10.1929 -1.17522 1.54868e-18
0.826908 -0.0226131 0.5 -10.1315 -1.17489 -1.73747e-22
0.831528 -0.0220701 0.5 -10.057 -1.17375 2.55922e-18
0.836084 -0.0215313 0.5 -9.97747 -1.17141 -1.51737e-22
0.840568 -0.0209979 0.5 -9.90133 -1.16899 0
0.844979 -0.0204704 0.5 -9.82869 -1.16643 -1.14155e-22
0.849317 -0.0199491 0.5 -9.7599 -1.1638 1.16123e-22
0.853667 -0.0194238 0.5 -9.69618 -1.16174 7.16643e-35
0.858113 -0.0188842 0.5 -9.62345 -1.16005 0
0.862564 -0.0183407 0.5 -9.53868 -1.15657 5.87747e-38
0.866936 -0.0178038 0.5 -9.45475 -1.15272 -3.97282e-19
0.871227 -0.0172741 0.5 -9.37451 -1.14883 3.52648e-38
0.875436 -0.016752 0.5 -9.29712 -1.14476 -1.51792e-19
0.879628 -0.0162295 0.5 -9.22566 -1.14122 1.97915e-20
0.88393 -0.0156905 0.5 -9.14432 -1.13804 1.09148e-19
0.88827 -0.0151435 0.5 -9.04838 -1.13289 5.87747e-39
0.892518 -0.014605 0.5 -8.95323 -1.12716 -5.7162e-23
0.896674 -0.0140755 0.5 -8.86238 -1.12127 1.34606e-22
0.900735 -0.0135557 0.5 -8.77629 -1.11527 -7.79362e-23
0.904824 -0.01303 0.5 -8.69597 -1.11002 8.32189e-19
0.909034 -0.0124858 0.5 -8.60062 -1.10469 1.92166e-18
0.913238 -0.0119394 0.5 -8.48933 -1.09672 1.39806e-22
0.917332 -0.0114042 0.5 -8.38184 -1.08845 1.3385e-18
0.921316 -0.010881 0.5 -8.27847 -1.07982 1.23535e-22
0.925241 -0.0103633 0.5 -8.18353 -1.07158 -1.09791e-22
0.929306 -0.00982488 0.5 -8.07752 -1.06368 1.76194e-18
0.933445 -0.00927338 0.5 -7.94848 -1.05298 -1.99803e-18
0.937451 -0.00873681 0.5 -7.81776 -1.04107 -2.25273e-18
0.941321 -0.00821597 0.5 -7.69148 -1.02876 2.52466e-18
0.945168 -0.00769601 0.5 -7.57247 -1.01687 -2.65561e-18
0.949167 -0.00715299 0.5 -7.43292 -1.00438 -2.70952e-18
0.953183 -0.00660441 0.5 -7.26786 -0.987957 3.03945e-18
0.957024 -0.006077 0.5 -7.10441 -0.970409 6.79962e-18
0.960743 -0.00556416 0.5 -6.95389 -0.953356 -1.88079e-37
0.964631 -0.00502557 0.5 -6.78405 -0.935694 -9.40395e-38
0.968598 -0.00447292 0.5 -6.57476 -0.91267 -3.99983e-18
0.972318 -0.00395183 0.5 -6.36788 -0.887852 2.26555e-18
0.976051 -0.00342699 0.5 -6.1644 -0.86259 1.40122e-22
0.979926 -0.00287974 0.5 -5.93223 -0.835652 -4.7117e-18
0.983612 -0.00235633 0.5 -5.62926 -0.796718 5.52465e-18
0.987331 -0.00182587 0.5 -5.41867 -0.770324 -5.18863e-18
0.991079 -0.00128868 0.5 -4.86577 -0.696817 1.11968e-23
0.994786 -0.000754822 0.5 -4.99726 -0.715463 6.00611e-18
0.998359 -0.000238135 0.5 -2.24071 -0.81556 -3.55431e-18
