# p  FACE_DATA 341
#  x  y  z  p
0.253551 0.0594249 0.5 -1020.72
0.260625 0.059604 0.5 -1060.25
0.268301 0.0597641 0.5 -1094.92
0.275825 0.0598682 0.5 -1076.31
0.282831 0.059928 0.5 -1047.42
0.290299 0.0599719 0.5 -1035.49
0.298014 0.0599954 0.5 -1026.17
0.305661 0.0599931 0.5 -1018.54
0.313016 0.0599637 0.5 -1007.84
0.3202 0.0599102 0.5 -994.345
0.327394 0.0598346 0.5 -982.322
0.334592 0.0597382 0.5 -970.272
0.341788 0.059622 0.5 -958.092
0.348891 0.0594882 0.5 -946.732
0.355903 0.0593371 0.5 -935.682
0.362912 0.0591677 0.5 -923.468
0.369915 0.058981 0.5 -911.19
0.376908 0.0587783 0.5 -899.421
0.383848 0.0585616 0.5 -887.952
0.39071 0.0583318 0.5 -877.07
0.397536 0.0580877 0.5 -865.411
0.404349 0.0578293 0.5 -853.821
0.411146 0.0575577 0.5 -842.106
0.417921 0.0572738 0.5 -830.59
0.424635 0.05698 0.5 -819.623
0.431287 0.0566758 0.5 -809.003
0.437919 0.0563599 0.5 -797.731
0.444529 0.056033 0.5 -786.308
0.451115 0.055696 0.5 -775.05
0.457672 0.0553498 0.5 -764.031
0.464179 0.0549959 0.5 -753.685
0.47064 0.0546337 0.5 -743.234
0.477077 0.0542621 0.5 -732.39
0.483487 0.0538822 0.5 -721.461
0.489866 0.0534947 0.5 -710.738
0.496211 0.0531004 0.5 -700.203
0.50252 0.0526998 0.5 -690.03
0.508797 0.0522921 0.5 -680.052
0.515045 0.0518774 0.5 -669.644
0.52126 0.0514563 0.5 -659.227
0.52744 0.0510296 0.5 -648.877
0.533582 0.0505981 0.5 -638.685
0.539695 0.0501616 0.5 -628.766
0.545788 0.0497191 0.5 -619.228
0.551854 0.0492707 0.5 -609.362
0.557885 0.0488177 0.5 -599.398
0.563876 0.0483607 0.5 -589.423
0.569827 0.0479005 0.5 -579.588
0.575737 0.0474373 0.5 -569.957
0.58164 0.0469687 0.5 -560.631
0.587536 0.0464941 0.5 -551.329
0.593393 0.0460162 0.5 -541.792
0.599208 0.0455357 0.5 -532.222
0.60498 0.045053 0.5 -522.73
0.610706 0.0445687 0.5 -513.396
0.616408 0.0440814 0.5 -504.184
0.622117 0.043588 0.5 -495.258
0.627812 0.04309 0.5 -486.066
0.633463 0.0425903 0.5 -476.738
0.639069 0.0420895 0.5 -467.43
0.644626 0.0415881 0.5 -458.216
0.650134 0.0410868 0.5 -449.143
0.655639 0.0405812 0.5 -440.213
0.661165 0.0400689 0.5 -431.431
0.666665 0.039554 0.5 -422.392
0.672117 0.0390389 0.5 -413.298
0.677519 0.038524 0.5 -404.241
0.682868 0.0380099 0.5 -395.28
0.688165 0.037497 0.5 -386.424
0.693484 0.0369779 0.5 -377.674
0.698837 0.0364512 0.5 -368.881
0.704147 0.0359241 0.5 -359.904
0.709405 0.0353979 0.5 -350.923
0.714609 0.0348733 0.5 -341.995
0.719757 0.0343505 0.5 -333.162
0.724855 0.0338293 0.5 -324.41
0.729999 0.0332999 0.5 -315.738
0.73518 0.0327625 0.5 -306.895
0.740306 0.0322267 0.5 -297.893
0.745375 0.0316932 0.5 -288.879
0.750386 0.0311622 0.5 -279.905
0.755336 0.0306343 0.5 -271.015
0.76026 0.0301061 0.5 -262.162
0.765241 0.0295683 0.5 -253.33
0.770246 0.0290241 0.5 -244.27
0.775191 0.0284829 0.5 -235.09
0.780073 0.027945 0.5 -225.914
0.784891 0.0274108 0.5 -216.779
0.789645 0.0268807 0.5 -207.718
0.794414 0.0263459 0.5 -198.61
0.799254 0.0257999 0.5 -189.408
0.804082 0.0252514 0.5 -179.918
0.808843 0.0247071 0.5 -170.347
0.813536 0.0241673 0.5 -160.778
0.81816 0.0236326 0.5 -151.264
0.822721 0.0231023 0.5 -141.801
0.827366 0.0225594 0.5 -132.224
0.832084 0.0220045 0.5 -122.321
0.836729 0.0214548 0.5 -112.219
0.841299 0.0209107 0.5 -102.114
0.845793 0.0203728 0.5 -92.0215
0.85021 0.0198415 0.5 -81.9977
0.854677 0.0193015 0.5 -71.814
0.859239 0.0187469 0.5 -61.3962
0.863766 0.0181934 0.5 -50.6372
0.868209 0.0176469 0.5 -39.8364
0.872568 0.017108 0.5 -29.0433
0.87684 0.0165772 0.5 -18.3259
0.881165 0.0160373 0.5 -7.34945
0.885597 0.0154808 0.5 3.97199
0.889995 0.0149253 0.5 15.731
0.894296 0.0143788 0.5 27.5473
0.8985 0.013842 0.5 39.3233
0.902612 0.0133146 0.5 51.0663
0.90685 0.0127685 0.5 63.1954
0.911199 0.0122047 0.5 75.9781
0.915436 0.0116524 0.5 89.0128
0.919558 0.0111121 0.5 102.017
0.923564 0.0105848 0.5 114.935
0.92766 0.0100432 0.5 128.317
0.931889 0.00948105 0.5 142.325
0.936032 0.00892713 0.5 156.812
0.940034 0.00838932 0.5 171.197
0.943918 0.00786528 0.5 185.575
0.947957 0.00731753 0.5 200.65
0.952111 0.00675118 0.5 216.787
0.956082 0.0062066 0.5 233.012
0.959868 0.005685 0.5 249.034
0.963806 0.00514008 0.5 265.983
0.967884 0.00457263 0.5 284.179
0.971729 0.00403453 0.5 302.54
0.97552 0.00350184 0.5 321.301
0.979458 0.0029459 0.5 341.372
0.983267 0.00240536 0.5 361.705
0.98706 0.00186472 0.5 385.031
0.990882 0.00131704 0.5 404.812
0.994678 0.000770466 0.5 439.535
0.99832 0.00024378 0.5 442.349
0.00133235 0.00449653 0.5 3724.85
0.00576479 0.0125392 0.5 1724.94
0.0127073 0.018847 0.5 279.408
0.0207688 0.0238748 0.5 -337.544
0.0291543 0.0279559 0.5 -652.077
0.037672 0.0313759 0.5 -863.775
0.0464094 0.0343841 0.5 -977.649
0.0551576 0.0370177 0.5 -1067.24
0.0639069 0.0393539 0.5 -1125
0.0727041 0.0414595 0.5 -1162.72
0.081414 0.0433437 0.5 -1193.52
0.090183 0.0450639 0.5 -1212.66
0.098871 0.0466203 0.5 -1228.32
0.107395 0.0480148 0.5 -1235.9
0.116087 0.049318 0.5 -1243.61
0.124618 0.0504925 0.5 -1246.12
0.132994 0.0515502 0.5 -1247.78
0.141535 0.0525408 0.5 -1249.26
0.149928 0.053435 0.5 -1249.53
0.158135 0.0542362 0.5 -1248.78
0.166435 0.0549791 0.5 -1237.78
0.174718 0.0556571 0.5 -1217.62
0.182824 0.0562624 0.5 -1192.49
0.190865 0.0568083 0.5 -1170.64
0.198976 0.0573076 0.5 -1155.6
0.20712 0.0577564 0.5 -1148.51
0.215524 0.0581602 0.5 -1141.17
0.224086 0.0585239 0.5 -1116.45
0.231971 0.0588335 0.5 -1110.84
0.239768 0.0591111 0.5 -1113.09
0.246955 0.0592927 0.5 -1156.73
0.00133235 -0.00449653 0.5 3725.32
0.00576479 -0.0125392 0.5 1733.96
0.0127073 -0.018847 0.5 271.612
0.0207688 -0.0238748 0.5 -339.783
0.0291543 -0.0279559 0.5 -654.265
0.037672 -0.0313759 0.5 -852.581
0.0464094 -0.0343841 0.5 -986.305
0.0551576 -0.0370177 0.5 -1069.57
0.0639069 -0.0393539 0.5 -1124.1
0.0727041 -0.0414595 0.5 -1165.24
0.081414 -0.0433437 0.5 -1194.78
0.090183 -0.0450639 0.5 -1214.6
0.098871 -0.0466203 0.5 -1229
0.107395 -0.0480148 0.5 -1237.42
0.116087 -0.049318 0.5 -1243.99
0.124618 -0.0504925 0.5 -1247.37
0.132994 -0.0515502 0.5 -1248.37
0.141535 -0.0525408 0.5 -1251.07
0.149928 -0.053435 0.5 -1250.53
0.158135 -0.0542362 0.5 -1248.48
0.166435 -0.0549791 0.5 -1233.49
0.174718 -0.0556571 0.5 -1213.3
0.182824 -0.0562624 0.5 -1189.27
0.190865 -0.0568083 0.5 -1170.58
0.198976 -0.0573076 0.5 -1156.27
0.20712 -0.0577564 0.5 -1150.41
0.215524 -0.0581602 0.5 -1142.24
0.224086 -0.0585239 0.5 -1117.94
0.231971 -0.0588335 0.5 -1111.72
0.239768 -0.0591111 0.5 -1113.55
0.246955 -0.0592927 0.5 -1158.11
0.253478 -0.0594229 0.5 -1021.52
0.260394 -0.0595984 0.5 -1060.61
0.267845 -0.0597569 0.5 -1094.53
0.275233 -0.059862 0.5 -1079.08
0.282135 -0.059923 0.5 -1049.27
0.289403 -0.0599678 0.5 -1037.27
0.296942 -0.0599937 0.5 -1027.96
0.304465 -0.0599955 0.5 -1019.6
0.311708 -0.0599711 0.5 -1010.64
0.318744 -0.0599229 0.5 -997.151
0.325783 -0.0598535 0.5 -984.982
0.332827 -0.0597638 0.5 -973.325
0.339871 -0.0596549 0.5 -961.563
0.346848 -0.0595287 0.5 -950.102
0.353736 -0.0593859 0.5 -939.086
0.360596 -0.0592257 0.5 -927.656
0.367453 -0.0590487 0.5 -915.676
0.3743 -0.0588558 0.5 -903.847
0.381124 -0.0586486 0.5 -892.199
0.38787 -0.0584289 0.5 -881.695
0.394554 -0.0581963 0.5 -870.623
0.401228 -0.0579495 0.5 -859.044
0.407888 -0.0576896 0.5 -847.493
0.41453 -0.0574175 0.5 -836.209
0.421133 -0.0571349 0.5 -825.284
0.427675 -0.0568427 0.5 -814.861
0.434175 -0.0565398 0.5 -804.02
0.440657 -0.0562259 0.5 -792.819
0.447118 -0.0559019 0.5 -781.883
0.453553 -0.0555685 0.5 -770.96
0.459952 -0.0552271 0.5 -760.281
0.466305 -0.054878 0.5 -750.298
0.472621 -0.0545205 0.5 -739.84
0.478913 -0.0541543 0.5 -729.343
0.485178 -0.0537804 0.5 -718.681
0.491413 -0.0533994 0.5 -708.17
0.497615 -0.0530121 0.5 -697.91
0.503783 -0.0526186 0.5 -688.1
0.509921 -0.0522183 0.5 -678.307
0.51603 -0.0518112 0.5 -668.093
0.522108 -0.0513982 0.5 -657.837
0.528152 -0.05098 0.5 -647.705
0.534159 -0.0505573 0.5 -637.767
0.54014 -0.0501296 0.5 -628.106
0.546102 -0.0496961 0.5 -618.837
0.552038 -0.0492571 0.5 -609.121
0.557939 -0.0488136 0.5 -599.302
0.563803 -0.0483664 0.5 -589.554
0.569628 -0.047916 0.5 -579.922
0.575412 -0.047463 0.5 -570.508
0.58119 -0.0470047 0.5 -561.409
0.586964 -0.0465405 0.5 -552.295
0.5927 -0.0460731 0.5 -542.951
0.598397 -0.0456031 0.5 -533.6
0.604052 -0.045131 0.5 -524.309
0.609664 -0.0446572 0.5 -515.164
0.615243 -0.0441814 0.5 -506.17
0.620829 -0.0436999 0.5 -497.398
0.626413 -0.0432129 0.5 -488.452
0.631955 -0.0427242 0.5 -479.336
0.637454 -0.0422343 0.5 -470.24
0.642907 -0.0417437 0.5 -461.175
0.648313 -0.041253 0.5 -452.309
0.653694 -0.0407603 0.5 -443.504
0.659096 -0.0402614 0.5 -434.923
0.664496 -0.0397577 0.5 -426.146
0.669852 -0.0392536 0.5 -417.259
0.675159 -0.0387495 0.5 -408.391
0.680418 -0.0382459 0.5 -399.582
0.685626 -0.0377433 0.5 -390.913
0.690816 -0.0372389 0.5 -382.287
0.696038 -0.0367272 0.5 -373.799
0.701263 -0.0362109 0.5 -365.087
0.706438 -0.0356954 0.5 -356.281
0.711561 -0.035181 0.5 -347.493
0.716633 -0.0346682 0.5 -338.753
0.72165 -0.0341574 0.5 -330.14
0.726654 -0.0336446 0.5 -321.542
0.731704 -0.0331235 0.5 -313.028
0.736758 -0.032598 0.5 -304.27
0.741759 -0.0320742 0.5 -295.423
0.746705 -0.0315527 0.5 -286.599
0.751594 -0.0310337 0.5 -277.8
0.756425 -0.0305178 0.5 -269.133
0.761255 -0.029999 0.5 -260.439
0.766142 -0.0294707 0.5 -251.763
0.771031 -0.0289385 0.5 -242.831
0.775861 -0.0284092 0.5 -233.832
0.780632 -0.0278832 0.5 -224.848
0.785341 -0.0273608 0.5 -215.899
0.789989 -0.0268423 0.5 -207.032
0.79466 -0.0263184 0.5 -198.114
0.799401 -0.0257833 0.5 -189.087
0.804125 -0.0252465 0.5 -179.765
0.808785 -0.0247137 0.5 -170.388
0.81338 -0.0241853 0.5 -161.018
0.817908 -0.0236617 0.5 -151.7
0.822369 -0.0231434 0.5 -142.437
0.826908 -0.0226131 0.5 -133.077
0.831528 -0.0220701 0.5 -123.413
0.836084 -0.0215313 0.5 -113.528
0.840568 -0.0209979 0.5 -103.619
0.844979 -0.0204704 0.5 -93.7305
0.849317 -0.0199491 0.5 -83.9051
0.853667 -0.0194238 0.5 -73.9739
0.858113 -0.0188842 0.5 -63.8741
0.862564 -0.0183407 0.5 -53.3898
0.866936 -0.0178038 0.5 -42.8089
0.871227 -0.0172741 0.5 -32.2356
0.875436 -0.016752 0.5 -21.7157
0.879628 -0.0162295 0.5 -11.0778
0.88393 -0.0156905 0.5 -0.195017
0.88827 -0.0151435 0.5 11.2441
0.892518 -0.014605 0.5 22.7974
0.896674 -0.0140755 0.5 34.3497
0.900735 -0.0135557 0.5 45.8465
0.904824 -0.01303 0.5 57.5908
0.909034 -0.0124858 0.5 69.6915
0.913238 -0.0119394 0.5 82.3879
0.917332 -0.0114042 0.5 95.1441
0.921316 -0.010881 0.5 107.827
0.925241 -0.0103633 0.5 120.602
0.929306 -0.00982488 0.5 133.844
0.933445 -0.00927338 0.5 147.886
0.937451 -0.00873681 0.5 162.053
0.941321 -0.00821597 0.5 176.094
0.945168 -0.00769601 0.5 190.435
0.949167 -0.00715299 0.5 205.404
0.953183 -0.00660441 0.5 221.307
0.957024 -0.006077 0.5 237.127
0.960743 -0.00556416 0.5 252.99
0.964631 -0.00502557 0.5 269.727
0.968598 -0.00447292 0.5 287.723
0.972318 -0.00395183 0.5 305.614
0.976051 -0.00342699 0.5 324.142
0.979926 -0.00287974 0.5 344.011
0.983612 -0.00235633 0.5 363.883
0.987331 -0.00182587 0.5 386.799
0.991079 -0.00128868 0.5 406.322
0.994786 -0.000754822 0.5 440.433
0.998359 -0.000238135 0.5 443.04
