# wallShearStress  FACE_DATA 341
#  x  y  z  wallShearStress_x  wallShearStress_y  wallShearStress_z  
0.253551 0.0594249 0.5 -18.1549 -0.451044 3.66115e-18
0.260625 0.059604 0.5 -20.3184 -0.510902 -3.83368e-18
0.268301 0.0597641 0.5 -20.049 -0.342393 3.35914e-18
0.275825 0.0598682 0.5 -18.9007 -0.194493 -1.01687e-18
0.282831 0.059928 0.5 -18.4275 -0.139001 -9.18194e-19
0.290299 0.0599719 0.5 -18.4077 -0.087432 4.90806e-36
0.298014 0.0599954 0.5 -18.3367 -0.0312322 -2.11006e-19
0.305661 0.0599931 0.5 -18.155 0.0354879 -4.29946e-19
0.313016 0.0599637 0.5 -17.8732 0.0990987 -8.95008e-19
0.3202 0.0599102 0.5 -17.6371 0.152026 8.80628e-19
0.327394 0.0598346 0.5 -17.4608 0.202123 4.27211e-22
0.334592 0.0597382 0.5 -17.2903 0.24837 1.71832e-18
0.341788 0.059622 0.5 -17.1395 0.291964 -1.69688e-18
0.348891 0.0594882 0.5 -17.0009 0.335211 -9.91805e-24
0.355903 0.0593371 0.5 -16.8364 0.376415 -8.35174e-22
0.362912 0.0591677 0.5 -16.6658 0.414047 8.14304e-22
0.369915 0.058981 0.5 -16.5208 0.449871 -6.63432e-18
0.376908 0.0587783 0.5 -16.3818 0.483148 3.17383e-37
0.383848 0.0585616 0.5 -16.247 0.514744 -3.28039e-18
0.39071 0.0583318 0.5 -16.0957 0.546696 -1.0275e-23
0.397536 0.0580877 0.5 -15.9359 0.575779 -7.94341e-22
0.404349 0.0578293 0.5 -15.7845 0.602889 3.19593e-18
0.411146 0.0575577 0.5 -15.6453 0.628117 -3.16054e-18
0.417921 0.0572738 0.5 -15.5244 0.652198 4.11423e-37
0.424635 0.05698 0.5 -15.4141 0.676888 -6.26381e-18
0.431287 0.0566758 0.5 -15.2874 0.700904 -6.20267e-18
0.437919 0.0563599 0.5 -15.1521 0.722108 1.09371e-22
0.444529 0.056033 0.5 -15.0289 0.742326 -6.06654e-18
0.451115 0.055696 0.5 -14.918 0.761493 1.88079e-36
0.457672 0.0553498 0.5 -14.8231 0.780048 5.94686e-18
0.464179 0.0549959 0.5 -14.7265 0.799114 -2.89379e-21
0.47064 0.0546337 0.5 -14.6133 0.817075 1.17321e-17
0.477077 0.0542621 0.5 -14.4962 0.833095 5.79919e-18
0.483487 0.0538822 0.5 -14.39 0.848502 2.80343e-21
0.489866 0.0534947 0.5 -14.2935 0.863123 -2.07953e-23
0.496211 0.0531004 0.5 -14.2072 0.877032 -1.12601e-17
0.50252 0.0526998 0.5 -14.1254 0.891684 -1.37226e-21
0.508797 0.0522921 0.5 -14.029 0.906013 5.52338e-18
0.515045 0.0518774 0.5 -13.9265 0.918341 5.46691e-18
0.52126 0.0514563 0.5 -13.8304 0.930064 5.4081e-18
0.52744 0.0510296 0.5 -13.7415 0.941073 5.35542e-18
0.533582 0.0505981 0.5 -13.6613 0.9516 -1.6471e-34
0.539695 0.0501616 0.5 -13.5907 0.96253 -4.70198e-38
0.545788 0.0497191 0.5 -13.5097 0.974144 5.17596e-18
0.551854 0.0492707 0.5 -13.4178 0.983726 -5.12269e-18
0.557885 0.0488177 0.5 -13.3281 0.99255 5.06848e-18
0.563876 0.0483607 0.5 -13.2456 1.00098 -2.30397e-36
0.569827 0.0479005 0.5 -13.1707 1.00911 1.20278e-21
0.575737 0.0474373 0.5 -13.1053 1.01718 -1.21062e-21
0.58164 0.0469687 0.5 -13.0402 1.02627 -3.76158e-37
0.587536 0.0464941 0.5 -12.9625 1.03448 -4.76677e-18
0.593393 0.0460162 0.5 -12.8804 1.04131 -1.47358e-22
0.599208 0.0455357 0.5 -12.8031 1.04792 -1.10778e-34
0.60498 0.045053 0.5 -12.732 1.05436 1.46503e-34
0.610706 0.0445687 0.5 -12.6659 1.06048 1.10649e-21
0.616408 0.0440814 0.5 -12.6079 1.06708 1.2655e-22
0.622117 0.043588 0.5 -12.5422 1.07432 -4.40077e-18
0.627812 0.04309 0.5 -12.4657 1.07986 -4.35051e-18
0.633463 0.0425903 0.5 -12.3907 1.08489 8.60186e-18
0.639069 0.0420895 0.5 -12.3215 1.08982 8.50422e-18
0.644626 0.0415881 0.5 -12.258 1.09458 -4.20463e-18
0.650134 0.0410868 0.5 -12.2013 1.09932 -4.99585e-38
0.655639 0.0405812 0.5 -12.1505 1.10479 -4.04217e-18
0.661165 0.0400689 0.5 -12.0911 1.11053 -7.92916e-18
0.666665 0.039554 0.5 -12.0249 1.11485 7.52316e-37
0.672117 0.0390389 0.5 -11.9627 1.11912 9.3327e-22
0.677519 0.038524 0.5 -11.9071 1.12351 -9.42074e-22
0.682868 0.0380099 0.5 -11.858 1.12798 -1.56751e-22
0.688165 0.037497 0.5 -11.8179 1.13287 3.72127e-18
0.693484 0.0369779 0.5 -11.7846 1.13901 8.71747e-35
0.698837 0.0364512 0.5 -11.742 1.14494 8.45742e-22
0.704147 0.0359241 0.5 -11.6888 1.14917 1.34382e-22
0.709405 0.0353979 0.5 -11.6323 1.15266 -3.40356e-18
0.714609 0.0348733 0.5 -11.5752 1.1556 3.35111e-18
0.719757 0.0343505 0.5 -11.5188 1.15807 7.95173e-22
0.724855 0.0338293 0.5 -11.4674 1.16067 -3.24114e-18
0.729999 0.0332999 0.5 -11.4131 1.1639 -1.50272e-22
0.73518 0.0327625 0.5 -11.3478 1.16625 -3.01873e-18
0.740306 0.0322267 0.5 -11.2791 1.16767 -7.23323e-22
0.745375 0.0316932 0.5 -11.2133 1.16899 2.90632e-18
0.750386 0.0311622 0.5 -11.151 1.1702 2.84862e-18
0.755336 0.0306343 0.5 -11.092 1.17129 -2.79174e-18
0.76026 0.0301061 0.5 -11.0388 1.17275 2.69698e-18
0.765241 0.0295683 0.5 -10.9812 1.17486 -3.31489e-35
0.770246 0.0290241 0.5 -10.9133 1.17577 -9.77855e-35
0.775191 0.0284829 0.5 -10.8443 1.17611 1.05228e-35
0.780073 0.027945 0.5 -10.7781 1.1764 3.35857e-35
0.784891 0.0274108 0.5 -10.715 1.17658 2.74241e-22
0.789645 0.0268807 0.5 -10.6553 1.17674 -2.22927e-18
0.794414 0.0263459 0.5 -10.5988 1.1774 2.08871e-18
0.799254 0.0257999 0.5 -10.5338 1.17828 1.97373e-18
0.804082 0.0252514 0.5 -10.4598 1.17766 -3.74865e-35
0.808843 0.0247071 0.5 -10.3872 1.17673 1.82533e-18
0.813536 0.0241673 0.5 -10.318 1.17573 -4.26719e-22
0.81816 0.0236326 0.5 -10.2522 1.17461 3.33903e-18
0.822721 0.0231023 0.5 -10.1924 1.17376 -1.58329e-18
0.827366 0.0225594 0.5 -10.1297 1.17364 -1.78295e-22
0.832084 0.0220045 0.5 -10.0541 1.17248 -2.64559e-18
0.836729 0.0214548 0.5 -9.97504 1.17028 1.23288e-18
0.841299 0.0209107 0.5 -9.8992 1.16799 -1.14055e-18
0.845793 0.0203728 0.5 -9.82679 1.16552 -1.04523e-18
0.85021 0.0198415 0.5 -9.75942 1.16313 1.88079e-37
0.854677 0.0193015 0.5 -9.69493 1.16145 -1.59521e-18
0.859239 0.0187469 0.5 -9.61871 1.1596 -9.0102e-23
0.863766 0.0181934 0.5 -9.53339 1.15607 5.71226e-19
0.868209 0.0176469 0.5 -9.45043 1.15238 6.34366e-23
0.872568 0.017108 0.5 -9.37127 1.14864 3.20707e-39
0.87684 0.0165772 0.5 -9.29618 1.14486 -0
0.881165 0.0160373 0.5 -9.223 1.14171 -1.0762e-42
0.885597 0.0154808 0.5 -9.13615 1.13827 -1.37633e-23
0.889995 0.0149253 0.5 -9.03878 1.1328 1.40544e-23
0.894296 0.0143788 0.5 -8.94571 1.12724 4.86268e-23
0.8985 0.013842 0.5 -8.85701 1.12148 4.78598e-19
0.902612 0.0133146 0.5 -8.77683 1.11612 -6.34653e-19
0.90685 0.0127685 0.5 -8.69247 1.11155 9.75955e-23
0.911199 0.0122047 0.5 -8.58835 1.10523 -8.94838e-19
0.915436 0.0116524 0.5 -8.47928 1.09729 2.15352e-18
0.919558 0.0111121 0.5 -8.37622 1.08931 -8.24136e-23
0.923564 0.0105848 0.5 -8.28028 1.08134 1.47181e-18
0.92766 0.0100432 0.5 -8.18515 1.07404 -1.22624e-22
0.931889 0.00948105 0.5 -8.06814 1.06549 -1.7072e-18
0.936032 0.00892713 0.5 -7.93868 1.05428 -1.9457e-18
0.940034 0.00838932 0.5 -7.81363 1.04269 1.40009e-22
0.943918 0.00786528 0.5 -7.69799 1.03135 2.44471e-18
0.947957 0.00731753 0.5 -7.57059 1.02008 -2.38872e-18
0.952111 0.00675118 0.5 -7.41356 1.00544 1.41059e-37
0.956082 0.0062066 0.5 -7.25054 0.988513 -1.91701e-22
0.959868 0.005685 0.5 -7.10072 0.971977 -1.70248e-18
0.963806 0.00514008 0.5 -6.94085 0.955211 3.21232e-18
0.967884 0.00457263 0.5 -6.73976 0.934011 -3.61105e-18
0.971729 0.00403453 0.5 -6.52928 0.90927 -4.11052e-18
0.97552 0.00350184 0.5 -6.32831 0.884403 -4.1958e-18
0.979458 0.0029459 0.5 -6.10271 0.858583 1.35251e-22
0.983267 0.00240536 0.5 -5.7952 0.819547 -2.53049e-18
0.98706 0.00186472 0.5 -5.5811 0.792727 -1.44391e-22
0.990882 0.00131704 0.5 -5.02347 0.718967 -5.56971e-18
0.994678 0.000770466 0.5 -5.1404 0.735652 1.65491e-22
0.99832 0.00024378 0.5 -2.30331 0.827842 -3.78436e-21
0.00133235 0.00449653 0.5 -19.2722 -65.5119 2.32683e-40
0.00576479 0.0125392 0.5 -54.2177 -63.2134 -7.52316e-37
0.0127073 0.018847 0.5 -45.2028 -33.2475 -2.40836e-17
0.0207688 0.0238748 0.5 -34.8171 -19.0628 -5.74826e-17
0.0291543 0.0279559 0.5 -28.1856 -12.4906 -7.98185e-21
0.037672 0.0313759 0.5 -23.8593 -8.93631 3.09108e-22
0.0464094 0.0343841 0.5 -20.692 -6.70338 4.33033e-17
0.0551576 0.0370177 0.5 -18.4757 -5.27432 4.8031e-17
0.0639069 0.0393539 0.5 -16.6586 -4.23881 1.01441e-16
0.0727041 0.0414595 0.5 -15.2511 -3.48717 -5.24488e-17
0.081414 0.0433437 0.5 -14.0775 -2.91585 2.7729e-17
0.090183 0.0450639 0.5 -13.0991 -2.46472 -2.72029e-17
0.098871 0.0466203 0.5 -12.2317 -2.09815 -1.07874e-21
0.107395 0.0480148 0.5 -11.5115 -1.80894 -8.85489e-22
0.116087 0.049318 0.5 -10.8691 -1.56326 8.70673e-22
0.124618 0.0504925 0.5 -10.2992 -1.35771 9.28399e-22
0.132994 0.0515502 0.5 -9.84736 -1.19366 2.98519e-17
0.141535 0.0525408 0.5 -9.44987 -1.05022 2.93887e-17
0.149928 0.053435 0.5 -9.12345 -0.929186 1.55228e-17
0.158135 0.0542362 0.5 -8.93157 -0.831684 -4.3236e-23
0.166435 0.0549791 0.5 -9.47386 -0.801534 -1.50546e-17
0.174718 0.0556571 0.5 -10.9546 -0.842079 -2.99751e-37
0.182824 0.0562624 0.5 -13.5477 -0.949706 -1.51559e-17
0.190865 0.0568083 0.5 -16.6942 -1.06816 -4.54122e-22
0.198976 0.0573076 0.5 -19.4397 -1.12977 1.43493e-41
0.20712 0.0577564 0.5 -20.914 -1.07897 5.47874e-34
0.215524 0.0581602 0.5 -21.0447 -0.934293 -6.70681e-18
0.224086 0.0585239 0.5 -20.834 -0.837503 -6.71914e-18
0.231971 0.0588335 0.5 -20.8848 -0.791883 7.74112e-18
0.239768 0.0591111 0.5 -21.3999 -0.719857 1.0676e-22
0.246955 0.0592927 0.5 -19.1067 -0.277222 -1.80291e-22
0.00133235 -0.00449653 0.5 -19.247 65.417 0
0.00576479 -0.0125392 0.5 -53.9078 62.829 -1.48799e-16
0.0127073 -0.018847 0.5 -44.7292 32.8833 4.68737e-17
0.0207688 -0.0238748 0.5 -34.6899 18.978 2.89444e-17
0.0291543 -0.0279559 0.5 -28.051 12.422 -3.00174e-34
0.037672 -0.0313759 0.5 -23.8487 8.93341 -1.40078e-38
0.0464094 -0.0343841 0.5 -20.8167 6.75045 -2.18224e-38
0.0551576 -0.0370177 0.5 -18.4314 5.25808 6.01853e-36
0.0639069 -0.0393539 0.5 -16.6727 4.24238 -5.06803e-17
0.0727041 -0.0414595 0.5 -15.2832 3.49525 5.25631e-17
0.081414 -0.0433437 0.5 -14.101 2.92031 -1.69087e-21
0.090183 -0.0450639 0.5 -13.1061 2.46609 5.44935e-17
0.098871 -0.0466203 0.5 -12.2474 2.10077 5.85695e-17
0.107395 -0.0480148 0.5 -11.522 1.81026 2.89632e-17
0.116087 -0.049318 0.5 -10.8846 1.56489 -7.52316e-37
0.124618 -0.0504925 0.5 -10.3117 1.35913 -3.04335e-17
0.132994 -0.0515502 0.5 -9.86812 1.19617 -5.97357e-17
0.141535 -0.0525408 0.5 -9.46951 1.05252 -2.94293e-17
0.149928 -0.053435 0.5 -9.14794 0.930954 -9.48423e-22
0.158135 -0.0542362 0.5 -9.03425 0.839689 -1.5372e-17
0.166435 -0.0549791 0.5 -9.75086 0.824125 1.50024e-17
0.174718 -0.0556571 0.5 -11.3635 0.874696 4.5391e-22
0.182824 -0.0562624 0.5 -14.0268 0.985465 -9.23525e-22
0.190865 -0.0568083 0.5 -17.1051 1.09637 4.53483e-22
0.198976 -0.0573076 0.5 -19.712 1.14659 1.44499e-17
0.20712 -0.0577564 0.5 -21.0512 1.08655 -7.18853e-18
0.215524 -0.0581602 0.5 -21.1037 0.937444 6.71247e-18
0.224086 -0.0585239 0.5 -20.8485 0.838615 6.72879e-18
0.231971 -0.0588335 0.5 -20.8768 0.791576 1.183e-22
0.239768 -0.0591111 0.5 -21.4106 0.719226 -1.04376e-22
0.246955 -0.0592927 0.5 -19.0752 0.279304 2.42288e-18
0.253478 -0.0594229 0.5 -18.1305 0.45337 -3.05735e-23
0.260394 -0.0595984 0.5 -20.3139 0.51333 -3.27881e-40
0.267845 -0.0597569 0.5 -20.1066 0.35418 2.10381e-22
0.275233 -0.059862 0.5 -18.9564 0.200524 -2.50443e-22
0.282135 -0.059923 0.5 -18.4386 0.143609 -2.29905e-22
0.289403 -0.0599678 0.5 -18.4201 0.0932833 2.17123e-22
0.296942 -0.0599937 0.5 -18.344 0.0393844 1.91953e-39
0.304465 -0.0599955 0.5 -18.1974 -0.0245417 -6.61216e-39
0.311708 -0.0599711 0.5 -17.9316 -0.0899545 1.82976e-18
0.318744 -0.0599229 0.5 -17.6755 -0.142292 4.55504e-38
0.325783 -0.0598535 0.5 -17.5024 -0.192274 -2.86115e-35
0.332827 -0.0597638 0.5 -17.3408 -0.238649 1.76037e-18
0.339871 -0.0596549 0.5 -17.186 -0.281947 3.47861e-18
0.346848 -0.0595287 0.5 -17.0446 -0.323739 8.6018e-22
0.353736 -0.0593859 0.5 -16.8972 -0.365692 -3.4882e-18
0.360596 -0.0592257 0.5 -16.7326 -0.403855 8.46442e-22
0.367453 -0.0590487 0.5 -16.5777 -0.439388 3.22078e-23
0.3743 -0.0588558 0.5 -16.4395 -0.472795 -3.36592e-18
0.381124 -0.0586486 0.5 -16.3271 -0.504787 8.20892e-22
0.38787 -0.0584289 0.5 -16.2081 -0.537277 6.7156e-18
0.394554 -0.0581963 0.5 -16.065 -0.567416 -1.03444e-36
0.401228 -0.0579495 0.5 -15.9244 -0.59539 -6.56329e-18
0.407888 -0.0576896 0.5 -15.7987 -0.621898 7.97606e-22
0.41453 -0.0574175 0.5 -15.6857 -0.646882 -9.40395e-38
0.421133 -0.0571349 0.5 -15.5844 -0.670794 -3.19614e-18
0.427675 -0.0568427 0.5 -15.4744 -0.695731 -7.73035e-22
0.434175 -0.0565398 0.5 -15.3481 -0.718279 7.74999e-22
0.440657 -0.0562259 0.5 -15.2304 -0.739573 -1.88079e-36
0.447118 -0.0559019 0.5 -15.1211 -0.759569 6.17289e-18
0.453553 -0.0555685 0.5 -15.0188 -0.778135 7.40829e-22
0.459952 -0.0552271 0.5 -14.9324 -0.796558 6.06778e-18
0.466305 -0.054878 0.5 -14.8342 -0.8158 6.03488e-18
0.472621 -0.0545205 0.5 -14.72 -0.832963 -1.19435e-17
0.478913 -0.0541543 0.5 -14.6051 -0.8486 1.03867e-22
0.485178 -0.0537804 0.5 -14.4981 -0.863206 -5.85054e-18
0.491413 -0.0533994 0.5 -14.402 -0.877242 5.79382e-18
0.497615 -0.0530121 0.5 -14.3187 -0.890886 -6.95909e-22
0.503783 -0.0526186 0.5 -14.2359 -0.90576 1.3892e-21
0.509921 -0.0522183 0.5 -14.137 -0.919372 -1.1269e-17
0.51603 -0.0518112 0.5 -14.0347 -0.9313 5.57606e-18
0.522108 -0.0513982 0.5 -13.9413 -0.942823 1.10392e-17
0.528152 -0.05098 0.5 -13.8568 -0.953822 5.46665e-18
0.534159 -0.0505573 0.5 -13.7811 -0.96435 6.56064e-22
0.54014 -0.0501296 0.5 -13.715 -0.975475 -9.85535e-24
0.546102 -0.0496961 0.5 -13.6372 -0.987099 5.28475e-18
0.552038 -0.0492571 0.5 -13.5487 -0.996689 5.23164e-18
0.557939 -0.0488136 0.5 -13.4663 -1.00595 6.26964e-22
0.563803 -0.0483664 0.5 -13.3914 -1.01485 -1.25173e-21
0.569628 -0.047916 0.5 -13.3243 -1.02343 5.02457e-22
0.575412 -0.047463 0.5 -13.2669 -1.03199 -6.09214e-22
0.58119 -0.0470047 0.5 -13.2076 -1.04121 -4.92556e-18
0.586964 -0.0465405 0.5 -13.1341 -1.0497 9.96325e-24
0.5927 -0.0460731 0.5 -13.0547 -1.05681 1.17804e-21
0.598397 -0.0456031 0.5 -12.979 -1.06356 -4.77622e-18
0.604052 -0.045131 0.5 -12.9086 -1.07003 -4.72736e-18
0.609664 -0.0446572 0.5 -12.8431 -1.07621 1.08145e-36
0.615243 -0.0441814 0.5 -12.7845 -1.08247 1.88079e-36
0.620829 -0.0436999 0.5 -12.7212 -1.08955 9.01489e-18
0.626413 -0.0432129 0.5 -12.6461 -1.09543 -3.00927e-36
0.631955 -0.0427242 0.5 -12.5702 -1.10049 -4.40891e-18
0.637454 -0.0422343 0.5 -12.4982 -1.10524 3.76158e-37
0.642907 -0.0417437 0.5 -12.4327 -1.10993 4.31191e-18
0.648313 -0.041253 0.5 -12.3714 -1.11431 -4.26629e-18
0.653694 -0.0407603 0.5 -12.3172 -1.11895 -1.28709e-22
0.659096 -0.0402614 0.5 -12.2584 -1.12448 4.91915e-22
0.664496 -0.0397577 0.5 -12.1889 -1.12872 4.0217e-18
0.669852 -0.0392536 0.5 -12.119 -1.13237 -3.97238e-18
0.675159 -0.0387495 0.5 -12.0528 -1.13585 5.73017e-35
0.680418 -0.0382459 0.5 -11.9913 -1.13926 -3.87418e-18
0.685626 -0.0377433 0.5 -11.9329 -1.14242 3.28477e-22
0.690816 -0.0372389 0.5 -11.8804 -1.14593 -3.73338e-18
0.696038 -0.0367272 0.5 -11.8223 -1.15013 9.40395e-38
0.701263 -0.0362109 0.5 -11.7544 -1.15303 4.1763e-34
0.706438 -0.0356954 0.5 -11.6867 -1.15547 3.50963e-18
0.711561 -0.035181 0.5 -11.6222 -1.15774 -3.45761e-18
0.716633 -0.0346682 0.5 -11.5619 -1.15996 -3.40556e-18
0.72165 -0.0341574 0.5 -11.5046 -1.16197 -3.35531e-18
0.726654 -0.0336446 0.5 -11.4527 -1.16438 3.24827e-18
0.731704 -0.0331235 0.5 -11.3949 -1.16742 1.05928e-23
0.736758 -0.032598 0.5 -11.3274 -1.16913 1.08492e-23
0.741759 -0.0320742 0.5 -11.2605 -1.17048 7.35271e-22
0.746705 -0.0315527 0.5 -11.1963 -1.17165 -7.21345e-22
0.751594 -0.0310337 0.5 -11.1364 -1.17282 7.07422e-22
0.756425 -0.0305178 0.5 -11.0797 -1.17386 -6.93588e-22
0.761255 -0.029999 0.5 -11.0273 -1.1753 3.37384e-22
0.766142 -0.0294707 0.5 -10.9687 -1.17726 2.59482e-18
0.771031 -0.0289385 0.5 -10.9011 -1.17793 -2.53201e-18
0.775861 -0.0284092 0.5 -10.8342 -1.1783 -3.07088e-22
0.780632 -0.0278832 0.5 -10.7699 -1.17856 4.80658e-18
0.785341 -0.0273608 0.5 -10.7085 -1.17872 -2.33762e-18
0.789989 -0.0268423 0.5 -10.6509 -1.17891 0
0.79466 -0.0263184 0.5 -10.5957 -1.17958 0
0.799401 -0.0257833 0.5 -10.5312 -1.18034 -9.40395e-38
0.804125 -0.0252465 0.5 -10.4586 -1.1797 1.94012e-18
0.808785 -0.0247137 0.5 -10.388 -1.17887 4.55237e-22
0.81338 -0.0241853 0.5 -10.3207 -1.17794 -1.78809e-18
0.817908 -0.0236617 0.5 -10.2563 -1.17682 -1.70907e-18
0.822369 -0.0231434 0.5 -10.1979 -1.17598 1.62984e-18
0.826908 -0.0226131 0.5 -10.138 -1.17584 -1.83269e-22
0.831528 -0.0220701 0.5 -10.0652 -1.17492 2.72231e-18
0.836084 -0.0215313 0.5 -9.98752 -1.17279 -1.61954e-22
0.840568 -0.0209979 0.5 -9.91321 -1.1706 2.15239e-42
0.844979 -0.0204704 0.5 -9.84246 -1.16828 -1.254e-22
0.849317 -0.0199491 0.5 -9.7756 -1.16589 1.27561e-22
0.853667 -0.0194238 0.5 -9.71392 -1.1641 -9.33515e-36
0.858113 -0.0188842 0.5 -9.64337 -1.16268 0
0.862564 -0.0183407 0.5 -9.56088 -1.1595 4.70198e-38
0.866936 -0.0178038 0.5 -9.47931 -1.15596 -5.00086e-19
0.871227 -0.0172741 0.5 -9.40148 -1.15239 2.35099e-38
0.875436 -0.016752 0.5 -9.32658 -1.14864 -2.63598e-19
0.879628 -0.0162295 0.5 -9.25772 -1.14545 1.32822e-19
0.88393 -0.0156905 0.5 -9.17918 -1.14265 -2.24306e-21
0.88827 -0.0151435 0.5 -9.0862 -1.1379 -7.34684e-40
0.892518 -0.014605 0.5 -8.9941 -1.13259 -4.20689e-23
0.896674 -0.0140755 0.5 -8.9064 -1.12713 1.03354e-22
0.900735 -0.0135557 0.5 -8.82355 -1.12157 -6.17487e-23
0.904824 -0.01303 0.5 -8.74666 -1.11679 6.99542e-19
0.909034 -0.0124858 0.5 -8.65499 -1.11198 1.65536e-18
0.913238 -0.0119394 0.5 -8.54754 -1.10455 1.22678e-22
0.917332 -0.0114042 0.5 -8.44397 -1.09683 1.19063e-18
0.921316 -0.010881 0.5 -8.34461 -1.08876 1.20607e-22
0.925241 -0.0103633 0.5 -8.25379 -1.0811 -9.98759e-23
0.929306 -0.00982488 0.5 -8.1522 -1.07384 1.60834e-18
0.933445 -0.00927338 0.5 -8.02779 -1.06381 -1.83493e-18
0.937451 -0.00873681 0.5 -7.90178 -1.05259 -2.0794e-18
0.941321 -0.00821597 0.5 -7.78024 -1.04095 2.34031e-18
0.945168 -0.00769601 0.5 -7.66614 -1.02977 -2.47078e-18
0.949167 -0.00715299 0.5 -7.53178 -1.01805 -2.52912e-18
0.953183 -0.00660441 0.5 -7.37199 -1.00242 2.84568e-18
0.957024 -0.006077 0.5 -7.21375 -0.985651 6.38299e-18
0.960743 -0.00556416 0.5 -7.06843 -0.969356 -1.88079e-37
0.964631 -0.00502557 0.5 -6.90387 -0.952506 -9.40395e-38
0.968598 -0.00447292 0.5 -6.69968 -0.930281 -3.7795e-18
0.972318 -0.00395183 0.5 -6.49735 -0.906157 2.14488e-18
0.976051 -0.00342699 0.5 -6.2981 -0.881531 1.3302e-22
0.979926 -0.00287974 0.5 -6.06921 -0.855152 -4.47674e-18
0.983612 -0.00235633 0.5 -5.76783 -0.816506 5.25819e-18
0.987331 -0.00182587 0.5 -5.55725 -0.790166 -4.94814e-18
0.991079 -0.00128868 0.5 -4.99961 -0.716074 1.10991e-23
0.994786 -0.000754822 0.5 -5.12552 -0.733866 5.75431e-18
0.998359 -0.000238135 0.5 -2.3025 -0.833083 -3.40409e-18
