/*--------------------------------*- C++ -*----------------------------------*\
  =========                 |
  \\      /  F ield         | OpenFOAM: The Open Source CFD Toolbox
   \\    /   O peration     | Website:  https://openfoam.org
    \\  /    A nd           | Version:  7
     \\/     M anipulation  |
\*---------------------------------------------------------------------------*/
FoamFile
{
    version     2.0;
    format      ascii;
    class       volScalarField;
    location    "1";
    object      gamma;
}
// * * * * * * * * * * * * * * * * * * * * * * * * * * * * * * * * * * * * * //

dimensions      [0 0 0 0 0 0 0];

internalField   nonuniform List<scalar> 
108025
(
0.999386
0.999385
0.999384
0.999384
0.999383
0.999382
0.999381
0.999381
0.99938
0.999379
0.999378
0.999378
0.999377
0.999376
0.999375
0.999374
0.999373
0.999372
0.999371
0.99937
0.999369
0.999368
0.999367
0.999366
0.999365
0.999364
0.999363
0.999362
0.999361
0.999359
0.999358
0.999357
0.999356
0.999354
0.999353
0.999352
0.99935
0.999349
0.999347
0.999346
0.999344
0.999342
0.999341
0.999339
0.999337
0.999336
0.999334
0.999332
0.99933
0.999328
0.999326
0.999324
0.999322
0.99932
0.999318
0.999316
0.999313
0.999311
0.999309
0.999306
0.999304
0.999301
0.999299
0.999296
0.999293
0.999291
0.999288
0.999285
0.999282
0.999279
0.999276
0.999272
0.999269
0.999266
0.999262
0.999259
0.999255
0.999252
0.999248
0.999244
0.99924
0.999236
0.999232
0.999228
0.999224
0.999219
0.999215
0.99921
0.999205
0.999201
0.999196
0.999191
0.999186
0.99918
0.999175
0.999169
0.999164
0.999158
0.999152
0.999146
0.99914
0.999134
0.999127
0.999121
0.999114
0.999107
0.9991
0.999093
0.999085
0.999078
0.99907
0.999062
0.999054
0.999046
0.999037
0.999028
0.99902
0.999011
0.999001
0.998992
0.998982
0.998972
0.998962
0.998951
0.998941
0.99893
0.998919
0.998907
0.998896
0.998884
0.998871
0.998859
0.998846
0.998833
0.998819
0.998806
0.998791
0.998777
0.998762
0.998747
0.998732
0.998716
0.998699
0.998683
0.998666
0.998648
0.99863
0.998612
0.998593
0.998574
0.998554
0.998534
0.998513
0.998492
0.998471
0.998448
0.998426
0.998402
0.998378
0.998354
0.998329
0.998303
0.998276
0.998249
0.998222
0.998193
0.998164
0.998134
0.998104
0.998073
0.998041
0.998008
0.997975
0.997941
0.997906
0.99787
0.997833
0.997796
0.997758
0.997719
0.997679
0.997639
0.997597
0.997555
0.997512
0.997468
0.997423
0.997378
0.997331
0.997284
0.997236
0.997187
0.997137
0.997086
0.997034
0.996982
0.996929
0.996874
0.99682
0.996762
0.996713
0.996621
0.999233
0.999233
0.999232
0.999232
0.999231
0.999231
0.99923
0.99923
0.999229
0.999228
0.999228
0.999227
0.999226
0.999226
0.999225
0.999224
0.999224
0.999223
0.999222
0.999221
0.999221
0.99922
0.999219
0.999218
0.999217
0.999216
0.999215
0.999214
0.999213
0.999213
0.999212
0.99921
0.999209
0.999208
0.999207
0.999206
0.999205
0.999204
0.999203
0.999201
0.9992
0.999199
0.999197
0.999196
0.999195
0.999193
0.999192
0.99919
0.999189
0.999187
0.999186
0.999184
0.999182
0.999181
0.999179
0.999177
0.999175
0.999173
0.999172
0.99917
0.999168
0.999166
0.999163
0.999161
0.999159
0.999157
0.999155
0.999152
0.99915
0.999147
0.999145
0.999142
0.99914
0.999137
0.999134
0.999131
0.999128
0.999125
0.999122
0.999119
0.999116
0.999113
0.999109
0.999106
0.999102
0.999099
0.999095
0.999091
0.999088
0.999084
0.99908
0.999076
0.999071
0.999067
0.999063
0.999058
0.999054
0.999049
0.999044
0.999039
0.999034
0.999029
0.999023
0.999018
0.999012
0.999007
0.999001
0.998995
0.998989
0.998983
0.998976
0.99897
0.998963
0.998956
0.998949
0.998942
0.998935
0.998927
0.99892
0.998912
0.998904
0.998895
0.998887
0.998878
0.998869
0.99886
0.998851
0.998842
0.998832
0.998822
0.998812
0.998801
0.998791
0.99878
0.998769
0.998757
0.998746
0.998734
0.998721
0.998709
0.998696
0.998683
0.99867
0.998656
0.998642
0.998627
0.998613
0.998598
0.998582
0.998566
0.99855
0.998534
0.998517
0.998499
0.998482
0.998464
0.998445
0.998426
0.998407
0.998387
0.998367
0.998346
0.998325
0.998303
0.998281
0.998258
0.998235
0.998211
0.998187
0.998162
0.998137
0.998111
0.998085
0.998058
0.99803
0.998002
0.997973
0.997944
0.997913
0.997883
0.997851
0.997819
0.997787
0.997753
0.997719
0.997685
0.997649
0.997613
0.997576
0.997538
0.9975
0.997461
0.997421
0.997381
0.997339
0.997297
0.997254
0.99721
0.997166
0.997119
0.997079
0.997003
0.999113
0.999112
0.999112
0.999111
0.99911
0.99911
0.999109
0.999109
0.999108
0.999108
0.999107
0.999107
0.999106
0.999105
0.999105
0.999104
0.999103
0.999103
0.999102
0.999101
0.9991
0.9991
0.999099
0.999098
0.999097
0.999096
0.999096
0.999095
0.999094
0.999093
0.999092
0.999091
0.99909
0.999089
0.999088
0.999087
0.999086
0.999085
0.999084
0.999082
0.999081
0.99908
0.999079
0.999078
0.999076
0.999075
0.999074
0.999072
0.999071
0.999069
0.999068
0.999066
0.999065
0.999063
0.999061
0.99906
0.999058
0.999056
0.999054
0.999053
0.999051
0.999049
0.999047
0.999045
0.999043
0.99904
0.999038
0.999036
0.999034
0.999031
0.999029
0.999027
0.999024
0.999022
0.999019
0.999016
0.999013
0.999011
0.999008
0.999005
0.999002
0.998999
0.998996
0.998992
0.998989
0.998986
0.998982
0.998979
0.998975
0.998971
0.998967
0.998964
0.99896
0.998956
0.998951
0.998947
0.998943
0.998938
0.998934
0.998929
0.998924
0.998919
0.998914
0.998909
0.998904
0.998898
0.998893
0.998887
0.998882
0.998876
0.99887
0.998863
0.998857
0.99885
0.998844
0.998837
0.99883
0.998823
0.998816
0.998808
0.9988
0.998792
0.998784
0.998776
0.998768
0.998759
0.99875
0.998741
0.998732
0.998722
0.998713
0.998703
0.998692
0.998682
0.998671
0.99866
0.998649
0.998637
0.998625
0.998613
0.998601
0.998588
0.998575
0.998562
0.998548
0.998534
0.998519
0.998504
0.998489
0.998474
0.998458
0.998442
0.998425
0.998408
0.99839
0.998372
0.998354
0.998335
0.998315
0.998295
0.998275
0.998254
0.998232
0.99821
0.998188
0.998165
0.998141
0.998117
0.998092
0.998067
0.998041
0.998014
0.997987
0.997959
0.99793
0.997901
0.997871
0.997841
0.997809
0.997777
0.997745
0.997711
0.997677
0.997642
0.997606
0.99757
0.997533
0.997495
0.997456
0.997417
0.997377
0.997335
0.997294
0.997251
0.997208
0.997163
0.997118
0.997072
0.997026
0.996977
0.996936
0.996856
0.998993
0.998992
0.998992
0.998991
0.99899
0.99899
0.998989
0.998989
0.998988
0.998987
0.998987
0.998986
0.998985
0.998984
0.998984
0.998983
0.998982
0.998981
0.99898
0.99898
0.998979
0.998978
0.998977
0.998976
0.998975
0.998974
0.998973
0.998972
0.998971
0.99897
0.998969
0.998968
0.998966
0.998965
0.998964
0.998963
0.998962
0.99896
0.998959
0.998958
0.998956
0.998955
0.998953
0.998952
0.99895
0.998949
0.998947
0.998946
0.998944
0.998942
0.99894
0.998939
0.998937
0.998935
0.998933
0.998931
0.998929
0.998927
0.998925
0.998923
0.99892
0.998918
0.998916
0.998913
0.998911
0.998908
0.998906
0.998903
0.998901
0.998898
0.998895
0.998892
0.998889
0.998886
0.998883
0.99888
0.998877
0.998873
0.99887
0.998867
0.998863
0.998859
0.998856
0.998852
0.998848
0.998844
0.99884
0.998836
0.998832
0.998827
0.998823
0.998818
0.998814
0.998809
0.998804
0.998799
0.998794
0.998788
0.998783
0.998777
0.998772
0.998766
0.99876
0.998754
0.998748
0.998741
0.998735
0.998728
0.998721
0.998714
0.998707
0.9987
0.998692
0.998685
0.998677
0.998669
0.998661
0.998652
0.998643
0.998634
0.998625
0.998616
0.998607
0.998597
0.998587
0.998576
0.998566
0.998555
0.998544
0.998533
0.998521
0.998509
0.998497
0.998485
0.998472
0.998459
0.998445
0.998432
0.998418
0.998403
0.998388
0.998373
0.998358
0.998342
0.998326
0.998309
0.998292
0.998275
0.998257
0.998238
0.99822
0.9982
0.998181
0.998161
0.99814
0.998119
0.998097
0.998075
0.998053
0.99803
0.998006
0.997982
0.997958
0.997932
0.997907
0.99788
0.997854
0.997826
0.997798
0.997769
0.99774
0.99771
0.99768
0.997649
0.997617
0.997584
0.997551
0.997517
0.997483
0.997448
0.997412
0.997375
0.997338
0.997299
0.99726
0.997221
0.99718
0.997139
0.997097
0.997054
0.99701
0.996966
0.996921
0.996875
0.996828
0.99678
0.996731
0.996681
0.996631
0.996578
0.996533
0.996448
0.998953
0.998953
0.998952
0.998952
0.998951
0.998951
0.99895
0.99895
0.998949
0.998949
0.998948
0.998948
0.998947
0.998946
0.998946
0.998945
0.998945
0.998944
0.998943
0.998942
0.998942
0.998941
0.99894
0.99894
0.998939
0.998938
0.998937
0.998936
0.998935
0.998935
0.998934
0.998933
0.998932
0.998931
0.99893
0.998929
0.998928
0.998927
0.998926
0.998925
0.998923
0.998922
0.998921
0.99892
0.998919
0.998917
0.998916
0.998915
0.998913
0.998912
0.99891
0.998909
0.998907
0.998906
0.998904
0.998903
0.998901
0.998899
0.998898
0.998896
0.998894
0.998892
0.99889
0.998888
0.998886
0.998884
0.998882
0.99888
0.998878
0.998875
0.998873
0.998871
0.998868
0.998866
0.998863
0.998861
0.998858
0.998855
0.998853
0.99885
0.998847
0.998844
0.998841
0.998838
0.998834
0.998831
0.998828
0.998824
0.998821
0.998817
0.998813
0.99881
0.998806
0.998802
0.998798
0.998793
0.998789
0.998785
0.99878
0.998776
0.998771
0.998766
0.998761
0.998756
0.998751
0.998746
0.99874
0.998735
0.998729
0.998723
0.998717
0.998711
0.998705
0.998699
0.998692
0.998685
0.998678
0.998671
0.998664
0.998657
0.998649
0.998641
0.998633
0.998625
0.998617
0.998608
0.998599
0.99859
0.998581
0.998571
0.998562
0.998551
0.998541
0.998531
0.99852
0.998509
0.998498
0.998486
0.998474
0.998462
0.998449
0.998436
0.998423
0.99841
0.998396
0.998381
0.998367
0.998352
0.998336
0.998321
0.998304
0.998288
0.998271
0.998253
0.998236
0.998217
0.998198
0.998179
0.998159
0.998139
0.998118
0.998097
0.998075
0.998053
0.99803
0.998007
0.997983
0.997958
0.997933
0.997907
0.997881
0.997854
0.997826
0.997798
0.997769
0.99774
0.99771
0.997679
0.997647
0.997615
0.997582
0.997548
0.997514
0.997479
0.997443
0.997407
0.997369
0.997331
0.997292
0.997253
0.997212
0.997171
0.997129
0.997086
0.997043
0.996998
0.996953
0.996907
0.99686
0.996811
0.996769
0.996689
0.998867
0.998866
0.998865
0.998865
0.998864
0.998864
0.998863
0.998862
0.998862
0.998861
0.998861
0.99886
0.998859
0.998858
0.998858
0.998857
0.998856
0.998855
0.998855
0.998854
0.998853
0.998852
0.998851
0.99885
0.998849
0.998848
0.998847
0.998846
0.998845
0.998844
0.998843
0.998842
0.998841
0.99884
0.998839
0.998838
0.998836
0.998835
0.998834
0.998832
0.998831
0.99883
0.998828
0.998827
0.998825
0.998824
0.998822
0.998821
0.998819
0.998817
0.998816
0.998814
0.998812
0.99881
0.998808
0.998807
0.998805
0.998803
0.9988
0.998798
0.998796
0.998794
0.998792
0.998789
0.998787
0.998785
0.998782
0.998779
0.998777
0.998774
0.998771
0.998769
0.998766
0.998763
0.99876
0.998757
0.998754
0.99875
0.998747
0.998744
0.99874
0.998737
0.998733
0.998729
0.998725
0.998722
0.998717
0.998713
0.998709
0.998705
0.9987
0.998696
0.998691
0.998687
0.998682
0.998677
0.998672
0.998667
0.998661
0.998656
0.99865
0.998644
0.998639
0.998633
0.998626
0.99862
0.998614
0.998607
0.9986
0.998593
0.998586
0.998579
0.998571
0.998564
0.998556
0.998548
0.998539
0.998531
0.998522
0.998513
0.998504
0.998495
0.998485
0.998475
0.998465
0.998455
0.998444
0.998433
0.998422
0.998411
0.998399
0.998387
0.998375
0.998362
0.998349
0.998336
0.998322
0.998308
0.998293
0.998279
0.998264
0.998248
0.998232
0.998216
0.998199
0.998182
0.998164
0.998146
0.998128
0.998109
0.998089
0.998069
0.998049
0.998028
0.998006
0.997984
0.997962
0.997939
0.997916
0.997892
0.997867
0.997842
0.997816
0.99779
0.997763
0.997736
0.997708
0.997679
0.99765
0.99762
0.99759
0.997558
0.997527
0.997494
0.997461
0.997428
0.997393
0.997358
0.997323
0.997286
0.997249
0.997211
0.997172
0.997133
0.997093
0.997052
0.99701
0.996968
0.996924
0.99688
0.996835
0.996789
0.996743
0.996695
0.996647
0.996598
0.996548
0.996497
0.996445
0.996391
0.996345
0.996256
0.998862
0.998861
0.998861
0.998861
0.99886
0.99886
0.998859
0.998859
0.998858
0.998858
0.998857
0.998857
0.998856
0.998855
0.998855
0.998854
0.998854
0.998853
0.998852
0.998852
0.998851
0.99885
0.99885
0.998849
0.998848
0.998847
0.998847
0.998846
0.998845
0.998844
0.998843
0.998842
0.998841
0.998841
0.99884
0.998839
0.998838
0.998837
0.998836
0.998835
0.998833
0.998832
0.998831
0.99883
0.998829
0.998828
0.998826
0.998825
0.998824
0.998822
0.998821
0.99882
0.998818
0.998817
0.998815
0.998813
0.998812
0.99881
0.998809
0.998807
0.998805
0.998803
0.998801
0.9988
0.998798
0.998796
0.998794
0.998791
0.998789
0.998787
0.998785
0.998783
0.99878
0.998778
0.998775
0.998773
0.99877
0.998768
0.998765
0.998762
0.998759
0.998756
0.998753
0.99875
0.998747
0.998744
0.998741
0.998737
0.998734
0.99873
0.998727
0.998723
0.998719
0.998715
0.998711
0.998707
0.998703
0.998699
0.998695
0.99869
0.998685
0.998681
0.998676
0.998671
0.998666
0.998661
0.998655
0.99865
0.998644
0.998638
0.998632
0.998626
0.99862
0.998614
0.998607
0.998601
0.998594
0.998587
0.998579
0.998572
0.998564
0.998557
0.998549
0.99854
0.998532
0.998523
0.998514
0.998505
0.998496
0.998486
0.998476
0.998466
0.998456
0.998445
0.998434
0.998423
0.998412
0.9984
0.998388
0.998375
0.998362
0.998349
0.998336
0.998322
0.998308
0.998293
0.998278
0.998263
0.998247
0.998231
0.998214
0.998197
0.998179
0.998161
0.998143
0.998124
0.998105
0.998085
0.998064
0.998043
0.998022
0.998
0.997977
0.997954
0.997931
0.997907
0.997882
0.997856
0.997831
0.997804
0.997777
0.997749
0.997721
0.997692
0.997662
0.997632
0.997601
0.997569
0.997537
0.997504
0.99747
0.997436
0.997401
0.997365
0.997329
0.997292
0.997254
0.997215
0.997175
0.997135
0.997094
0.997052
0.99701
0.996966
0.996922
0.996877
0.996831
0.996784
0.996737
0.996687
0.996644
0.996563
0.998817
0.998817
0.998816
0.998816
0.998815
0.998815
0.998814
0.998814
0.998813
0.998813
0.998812
0.998811
0.998811
0.99881
0.99881
0.998809
0.998808
0.998807
0.998807
0.998806
0.998805
0.998804
0.998804
0.998803
0.998802
0.998801
0.9988
0.998799
0.998798
0.998797
0.998796
0.998795
0.998794
0.998793
0.998792
0.998791
0.99879
0.998789
0.998788
0.998787
0.998785
0.998784
0.998783
0.998781
0.99878
0.998779
0.998777
0.998776
0.998774
0.998773
0.998771
0.99877
0.998768
0.998766
0.998765
0.998763
0.998761
0.998759
0.998757
0.998755
0.998753
0.998751
0.998749
0.998747
0.998745
0.998743
0.99874
0.998738
0.998736
0.998733
0.998731
0.998728
0.998725
0.998723
0.99872
0.998717
0.998714
0.998711
0.998708
0.998705
0.998702
0.998699
0.998695
0.998692
0.998688
0.998685
0.998681
0.998677
0.998673
0.998669
0.998665
0.998661
0.998657
0.998652
0.998648
0.998643
0.998638
0.998634
0.998629
0.998624
0.998618
0.998613
0.998608
0.998602
0.998596
0.99859
0.998584
0.998578
0.998572
0.998565
0.998558
0.998551
0.998544
0.998537
0.99853
0.998522
0.998514
0.998506
0.998498
0.998489
0.998481
0.998472
0.998463
0.998453
0.998444
0.998434
0.998424
0.998413
0.998403
0.998392
0.99838
0.998369
0.998357
0.998345
0.998332
0.998319
0.998306
0.998292
0.998278
0.998264
0.998249
0.998234
0.998218
0.998202
0.998186
0.998169
0.998152
0.998134
0.998116
0.998097
0.998078
0.998058
0.998038
0.998017
0.997996
0.997974
0.997952
0.997929
0.997906
0.997882
0.997857
0.997832
0.997807
0.99778
0.997754
0.997726
0.997699
0.99767
0.997641
0.997612
0.997581
0.997551
0.997519
0.997487
0.997454
0.997421
0.997387
0.997352
0.997317
0.997281
0.997244
0.997207
0.997168
0.997129
0.99709
0.997049
0.997008
0.996966
0.996923
0.99688
0.996836
0.99679
0.996744
0.996698
0.99665
0.996601
0.996552
0.996502
0.996451
0.996397
0.996352
0.996265
0.998831
0.998831
0.99883
0.99883
0.99883
0.998829
0.998829
0.998828
0.998828
0.998827
0.998827
0.998826
0.998826
0.998825
0.998825
0.998824
0.998824
0.998823
0.998822
0.998822
0.998821
0.998821
0.99882
0.998819
0.998818
0.998818
0.998817
0.998816
0.998816
0.998815
0.998814
0.998813
0.998812
0.998811
0.998811
0.99881
0.998809
0.998808
0.998807
0.998806
0.998805
0.998804
0.998803
0.998802
0.998801
0.998799
0.998798
0.998797
0.998796
0.998795
0.998793
0.998792
0.998791
0.998789
0.998788
0.998786
0.998785
0.998783
0.998782
0.99878
0.998779
0.998777
0.998775
0.998773
0.998772
0.99877
0.998768
0.998766
0.998764
0.998762
0.99876
0.998758
0.998755
0.998753
0.998751
0.998749
0.998746
0.998744
0.998741
0.998738
0.998736
0.998733
0.99873
0.998727
0.998724
0.998721
0.998718
0.998715
0.998712
0.998709
0.998705
0.998702
0.998698
0.998694
0.998691
0.998687
0.998683
0.998679
0.998675
0.99867
0.998666
0.998661
0.998657
0.998652
0.998647
0.998642
0.998637
0.998632
0.998626
0.998621
0.998615
0.998609
0.998603
0.998597
0.998591
0.998584
0.998578
0.998571
0.998564
0.998557
0.998549
0.998542
0.998534
0.998526
0.998518
0.998509
0.9985
0.998491
0.998482
0.998473
0.998463
0.998453
0.998443
0.998432
0.998421
0.99841
0.998399
0.998387
0.998375
0.998363
0.99835
0.998337
0.998323
0.998309
0.998295
0.99828
0.998265
0.99825
0.998234
0.998217
0.998201
0.998183
0.998166
0.998147
0.998129
0.998109
0.99809
0.99807
0.998049
0.998028
0.998006
0.997983
0.997961
0.997937
0.997913
0.997889
0.997863
0.997838
0.997811
0.997785
0.997757
0.997729
0.9977
0.997671
0.997641
0.99761
0.997579
0.997547
0.997515
0.997482
0.997448
0.997413
0.997378
0.997342
0.997306
0.997268
0.99723
0.997191
0.997152
0.997112
0.99707
0.997029
0.996986
0.996942
0.996898
0.996853
0.996807
0.99676
0.996713
0.996663
0.996621
0.996539
0.998819
0.998819
0.998818
0.998818
0.998817
0.998817
0.998816
0.998816
0.998815
0.998815
0.998814
0.998814
0.998813
0.998813
0.998812
0.998812
0.998811
0.99881
0.99881
0.998809
0.998808
0.998808
0.998807
0.998806
0.998806
0.998805
0.998804
0.998803
0.998802
0.998802
0.998801
0.9988
0.998799
0.998798
0.998797
0.998796
0.998795
0.998794
0.998793
0.998792
0.998791
0.99879
0.998789
0.998788
0.998786
0.998785
0.998784
0.998783
0.998781
0.99878
0.998779
0.998777
0.998776
0.998774
0.998773
0.998771
0.99877
0.998768
0.998766
0.998765
0.998763
0.998761
0.998759
0.998757
0.998755
0.998753
0.998751
0.998749
0.998747
0.998745
0.998743
0.99874
0.998738
0.998736
0.998733
0.998731
0.998728
0.998725
0.998723
0.99872
0.998717
0.998714
0.998711
0.998708
0.998705
0.998701
0.998698
0.998695
0.998691
0.998688
0.998684
0.99868
0.998676
0.998672
0.998668
0.998664
0.99866
0.998655
0.998651
0.998646
0.998641
0.998637
0.998632
0.998626
0.998621
0.998616
0.99861
0.998605
0.998599
0.998593
0.998587
0.99858
0.998574
0.998567
0.99856
0.998553
0.998546
0.998538
0.998531
0.998523
0.998515
0.998507
0.998498
0.998489
0.99848
0.998471
0.998461
0.998452
0.998442
0.998431
0.998421
0.99841
0.998398
0.998387
0.998375
0.998363
0.99835
0.998337
0.998324
0.99831
0.998296
0.998281
0.998266
0.998251
0.998235
0.998219
0.998202
0.998185
0.998167
0.998149
0.99813
0.998111
0.998092
0.998071
0.998051
0.998029
0.998007
0.997985
0.997962
0.997939
0.997915
0.99789
0.997865
0.997839
0.997813
0.997787
0.997759
0.997731
0.997703
0.997674
0.997645
0.997614
0.997584
0.997552
0.99752
0.997488
0.997455
0.997421
0.997386
0.997351
0.997315
0.997279
0.997242
0.997204
0.997165
0.997126
0.997086
0.997045
0.997003
0.996961
0.996917
0.996873
0.996829
0.996783
0.996737
0.996689
0.996641
0.996592
0.996543
0.99649
0.996446
0.996361
0.998846
0.998845
0.998845
0.998845
0.998844
0.998844
0.998843
0.998843
0.998843
0.998842
0.998842
0.998841
0.998841
0.99884
0.99884
0.998839
0.998839
0.998838
0.998838
0.998837
0.998837
0.998836
0.998836
0.998835
0.998834
0.998834
0.998833
0.998833
0.998832
0.998831
0.99883
0.99883
0.998829
0.998828
0.998827
0.998827
0.998826
0.998825
0.998824
0.998823
0.998822
0.998821
0.99882
0.99882
0.998819
0.998818
0.998816
0.998815
0.998814
0.998813
0.998812
0.998811
0.99881
0.998808
0.998807
0.998806
0.998804
0.998803
0.998802
0.9988
0.998799
0.998797
0.998796
0.998794
0.998793
0.998791
0.998789
0.998787
0.998786
0.998784
0.998782
0.99878
0.998778
0.998776
0.998774
0.998772
0.99877
0.998767
0.998765
0.998763
0.99876
0.998758
0.998755
0.998753
0.99875
0.998747
0.998744
0.998741
0.998738
0.998735
0.998732
0.998729
0.998726
0.998722
0.998719
0.998715
0.998712
0.998708
0.998704
0.9987
0.998696
0.998692
0.998688
0.998683
0.998679
0.998674
0.998669
0.998664
0.998659
0.998654
0.998649
0.998643
0.998638
0.998632
0.998626
0.99862
0.998613
0.998607
0.9986
0.998593
0.998586
0.998579
0.998572
0.998564
0.998556
0.998548
0.99854
0.998531
0.998522
0.998513
0.998504
0.998494
0.998484
0.998474
0.998463
0.998453
0.998441
0.99843
0.998418
0.998406
0.998393
0.998381
0.998367
0.998354
0.998339
0.998325
0.99831
0.998295
0.998279
0.998263
0.998246
0.998229
0.998211
0.998193
0.998174
0.998155
0.998136
0.998115
0.998095
0.998073
0.998052
0.998029
0.998006
0.997983
0.997959
0.997934
0.997909
0.997883
0.997857
0.99783
0.997803
0.997775
0.997746
0.997717
0.997687
0.997657
0.997626
0.997594
0.997562
0.997529
0.997496
0.997461
0.997426
0.997391
0.997355
0.997318
0.99728
0.997242
0.997202
0.997162
0.997122
0.99708
0.997038
0.996995
0.996951
0.996907
0.996861
0.996815
0.996768
0.996719
0.996677
0.996597
0.998857
0.998857
0.998857
0.998856
0.998856
0.998856
0.998855
0.998855
0.998854
0.998854
0.998853
0.998853
0.998853
0.998852
0.998852
0.998851
0.998851
0.99885
0.998849
0.998849
0.998848
0.998848
0.998847
0.998847
0.998846
0.998845
0.998845
0.998844
0.998843
0.998843
0.998842
0.998841
0.99884
0.99884
0.998839
0.998838
0.998837
0.998836
0.998835
0.998835
0.998834
0.998833
0.998832
0.998831
0.99883
0.998829
0.998828
0.998826
0.998825
0.998824
0.998823
0.998822
0.998821
0.998819
0.998818
0.998817
0.998815
0.998814
0.998812
0.998811
0.998809
0.998808
0.998806
0.998805
0.998803
0.998801
0.9988
0.998798
0.998796
0.998794
0.998792
0.99879
0.998788
0.998786
0.998784
0.998782
0.998779
0.998777
0.998775
0.998772
0.99877
0.998767
0.998765
0.998762
0.998759
0.998756
0.998753
0.99875
0.998747
0.998744
0.998741
0.998738
0.998734
0.998731
0.998727
0.998723
0.99872
0.998716
0.998712
0.998708
0.998703
0.998699
0.998694
0.99869
0.998685
0.99868
0.998675
0.99867
0.998665
0.99866
0.998654
0.998648
0.998642
0.998636
0.99863
0.998624
0.998617
0.99861
0.998603
0.998596
0.998589
0.998581
0.998573
0.998565
0.998557
0.998548
0.998539
0.99853
0.998521
0.998511
0.998501
0.998491
0.998481
0.99847
0.998459
0.998447
0.998435
0.998423
0.998411
0.998398
0.998384
0.998371
0.998356
0.998342
0.998327
0.998311
0.998295
0.998279
0.998262
0.998245
0.998227
0.998208
0.998189
0.99817
0.99815
0.998129
0.998108
0.998086
0.998064
0.998041
0.998018
0.997994
0.99797
0.997945
0.997919
0.997893
0.997867
0.99784
0.997812
0.997784
0.997756
0.997726
0.997697
0.997666
0.997635
0.997604
0.997572
0.997539
0.997506
0.997472
0.997437
0.997402
0.997366
0.997329
0.997292
0.997254
0.997215
0.997175
0.997135
0.997094
0.997052
0.99701
0.996966
0.996922
0.996877
0.996831
0.996785
0.996737
0.996689
0.996638
0.996596
0.996513
0.998894
0.998894
0.998893
0.998893
0.998893
0.998893
0.998892
0.998892
0.998892
0.998891
0.998891
0.99889
0.99889
0.99889
0.998889
0.998889
0.998888
0.998888
0.998888
0.998887
0.998887
0.998886
0.998886
0.998885
0.998885
0.998884
0.998884
0.998883
0.998882
0.998882
0.998881
0.998881
0.99888
0.998879
0.998879
0.998878
0.998877
0.998877
0.998876
0.998875
0.998874
0.998874
0.998873
0.998872
0.998871
0.99887
0.998869
0.998868
0.998868
0.998867
0.998866
0.998865
0.998864
0.998863
0.998861
0.99886
0.998859
0.998858
0.998857
0.998856
0.998854
0.998853
0.998852
0.99885
0.998849
0.998847
0.998846
0.998844
0.998843
0.998841
0.99884
0.998838
0.998836
0.998835
0.998833
0.998831
0.998829
0.998827
0.998825
0.998823
0.998821
0.998819
0.998816
0.998814
0.998812
0.998809
0.998807
0.998804
0.998802
0.998799
0.998796
0.998793
0.99879
0.998787
0.998784
0.998781
0.998778
0.998774
0.998771
0.998767
0.998764
0.99876
0.998756
0.998752
0.998748
0.998744
0.998739
0.998735
0.99873
0.998726
0.998721
0.998716
0.99871
0.998705
0.9987
0.998694
0.998688
0.998682
0.998676
0.99867
0.998663
0.998656
0.998649
0.998642
0.998635
0.998627
0.998619
0.998611
0.998603
0.998594
0.998585
0.998576
0.998567
0.998557
0.998547
0.998536
0.998526
0.998515
0.998503
0.998492
0.99848
0.998467
0.998454
0.998441
0.998427
0.998413
0.998399
0.998384
0.998369
0.998353
0.998337
0.99832
0.998302
0.998285
0.998266
0.998248
0.998228
0.998208
0.998188
0.998167
0.998145
0.998123
0.9981
0.998077
0.998053
0.998029
0.998004
0.997979
0.997953
0.997927
0.9979
0.997872
0.997844
0.997815
0.997786
0.997756
0.997726
0.997695
0.997663
0.997631
0.997598
0.997565
0.997531
0.997496
0.99746
0.997424
0.997387
0.99735
0.997311
0.997272
0.997233
0.997192
0.997151
0.997109
0.997066
0.997022
0.996978
0.996932
0.996887
0.996838
0.996797
0.996718
0.998923
0.998923
0.998923
0.998922
0.998922
0.998922
0.998921
0.998921
0.998921
0.99892
0.99892
0.99892
0.998919
0.998919
0.998918
0.998918
0.998918
0.998917
0.998917
0.998916
0.998916
0.998915
0.998915
0.998914
0.998914
0.998913
0.998913
0.998912
0.998912
0.998911
0.998911
0.99891
0.998909
0.998909
0.998908
0.998908
0.998907
0.998906
0.998905
0.998905
0.998904
0.998903
0.998902
0.998902
0.998901
0.9989
0.998899
0.998898
0.998897
0.998896
0.998895
0.998894
0.998893
0.998892
0.998891
0.99889
0.998889
0.998888
0.998887
0.998885
0.998884
0.998883
0.998882
0.99888
0.998879
0.998877
0.998876
0.998874
0.998873
0.998871
0.99887
0.998868
0.998866
0.998865
0.998863
0.998861
0.998859
0.998857
0.998855
0.998853
0.998851
0.998849
0.998847
0.998844
0.998842
0.99884
0.998837
0.998835
0.998832
0.998829
0.998826
0.998824
0.998821
0.998818
0.998815
0.998811
0.998808
0.998805
0.998801
0.998798
0.998794
0.99879
0.998786
0.998782
0.998778
0.998774
0.998769
0.998765
0.99876
0.998755
0.998751
0.998745
0.99874
0.998735
0.998729
0.998723
0.998718
0.998711
0.998705
0.998699
0.998692
0.998685
0.998678
0.998671
0.998663
0.998655
0.998647
0.998639
0.99863
0.998621
0.998612
0.998603
0.998593
0.998583
0.998573
0.998562
0.998551
0.99854
0.998528
0.998516
0.998503
0.99849
0.998477
0.998463
0.998449
0.998435
0.99842
0.998404
0.998388
0.998372
0.998355
0.998338
0.99832
0.998301
0.998282
0.998262
0.998242
0.998221
0.9982
0.998178
0.998155
0.998132
0.998108
0.998084
0.99806
0.998035
0.998009
0.997983
0.997957
0.99793
0.997903
0.997875
0.997846
0.997817
0.997787
0.997757
0.997726
0.997695
0.997663
0.99763
0.997597
0.997563
0.997528
0.997493
0.997457
0.997421
0.997383
0.997345
0.997307
0.997267
0.997227
0.997186
0.997144
0.997101
0.997058
0.997014
0.996969
0.996923
0.996877
0.996828
0.996787
0.996707
0.998968
0.998968
0.998968
0.998967
0.998967
0.998967
0.998967
0.998966
0.998966
0.998966
0.998966
0.998965
0.998965
0.998965
0.998964
0.998964
0.998964
0.998963
0.998963
0.998963
0.998962
0.998962
0.998962
0.998961
0.998961
0.99896
0.99896
0.998959
0.998959
0.998959
0.998958
0.998958
0.998957
0.998957
0.998956
0.998956
0.998955
0.998954
0.998954
0.998953
0.998953
0.998952
0.998951
0.998951
0.99895
0.998949
0.998949
0.998948
0.998947
0.998946
0.998946
0.998945
0.998944
0.998943
0.998942
0.998941
0.99894
0.998939
0.998938
0.998937
0.998936
0.998935
0.998934
0.998933
0.998932
0.998931
0.99893
0.998928
0.998927
0.998926
0.998924
0.998923
0.998922
0.99892
0.998919
0.998917
0.998915
0.998914
0.998912
0.99891
0.998909
0.998907
0.998905
0.998903
0.998901
0.998899
0.998897
0.998895
0.998892
0.99889
0.998888
0.998885
0.998883
0.99888
0.998877
0.998875
0.998872
0.998869
0.998866
0.998863
0.998859
0.998856
0.998853
0.998849
0.998846
0.998842
0.998838
0.998834
0.99883
0.998826
0.998821
0.998817
0.998812
0.998807
0.998802
0.998797
0.998792
0.998787
0.998781
0.998775
0.998769
0.998763
0.998756
0.99875
0.998743
0.998736
0.998729
0.998721
0.998713
0.998705
0.998697
0.998688
0.998679
0.99867
0.998661
0.998651
0.998641
0.998631
0.99862
0.998609
0.998597
0.998586
0.998573
0.998561
0.998548
0.998534
0.998521
0.998506
0.998492
0.998476
0.998461
0.998445
0.998428
0.998411
0.998393
0.998375
0.998356
0.998337
0.998317
0.998297
0.998276
0.998254
0.998232
0.998209
0.998186
0.998162
0.998138
0.998114
0.998088
0.998063
0.998036
0.99801
0.997982
0.997955
0.997926
0.997898
0.997868
0.997838
0.997807
0.997776
0.997744
0.997712
0.997679
0.997645
0.997611
0.997576
0.99754
0.997504
0.997467
0.997429
0.99739
0.997351
0.997311
0.99727
0.997228
0.997186
0.997143
0.997099
0.997054
0.997007
0.996968
0.996891
0.99901
0.999009
0.999009
0.999009
0.999009
0.999009
0.999008
0.999008
0.999008
0.999008
0.999007
0.999007
0.999007
0.999007
0.999006
0.999006
0.999006
0.999005
0.999005
0.999005
0.999004
0.999004
0.999004
0.999003
0.999003
0.999003
0.999002
0.999002
0.999001
0.999001
0.999
0.999
0.998999
0.998999
0.998999
0.998998
0.998998
0.998997
0.998996
0.998996
0.998995
0.998995
0.998994
0.998994
0.998993
0.998992
0.998992
0.998991
0.99899
0.998989
0.998989
0.998988
0.998987
0.998986
0.998985
0.998985
0.998984
0.998983
0.998982
0.998981
0.99898
0.998979
0.998978
0.998977
0.998976
0.998975
0.998974
0.998972
0.998971
0.99897
0.998969
0.998967
0.998966
0.998965
0.998963
0.998962
0.99896
0.998959
0.998957
0.998955
0.998954
0.998952
0.99895
0.998948
0.998946
0.998944
0.998942
0.99894
0.998938
0.998936
0.998933
0.998931
0.998929
0.998926
0.998923
0.998921
0.998918
0.998915
0.998912
0.998909
0.998906
0.998903
0.998899
0.998896
0.998892
0.998889
0.998885
0.998881
0.998877
0.998873
0.998869
0.998864
0.998859
0.998855
0.99885
0.998845
0.998839
0.998834
0.998828
0.998823
0.998817
0.99881
0.998804
0.998797
0.998791
0.998783
0.998776
0.998769
0.998761
0.998753
0.998744
0.998736
0.998727
0.998718
0.998708
0.998698
0.998688
0.998678
0.998667
0.998656
0.998644
0.998632
0.99862
0.998607
0.998594
0.99858
0.998567
0.998552
0.998537
0.998522
0.998506
0.99849
0.998473
0.998456
0.998438
0.998419
0.9984
0.998381
0.998361
0.99834
0.998318
0.998296
0.998274
0.998251
0.998228
0.998204
0.99818
0.998155
0.99813
0.998104
0.998078
0.998051
0.998024
0.997996
0.997968
0.997939
0.99791
0.99788
0.99785
0.997818
0.997787
0.997754
0.997721
0.997688
0.997653
0.997618
0.997583
0.997546
0.997509
0.997471
0.997433
0.997393
0.997353
0.997313
0.997271
0.997229
0.997186
0.997141
0.997097
0.99705
0.99701
0.996933
0.999061
0.999061
0.999061
0.999061
0.999061
0.99906
0.99906
0.99906
0.99906
0.99906
0.999059
0.999059
0.999059
0.999059
0.999059
0.999058
0.999058
0.999058
0.999058
0.999057
0.999057
0.999057
0.999057
0.999056
0.999056
0.999056
0.999055
0.999055
0.999055
0.999054
0.999054
0.999054
0.999053
0.999053
0.999053
0.999052
0.999052
0.999051
0.999051
0.999051
0.99905
0.99905
0.999049
0.999049
0.999048
0.999048
0.999047
0.999047
0.999046
0.999045
0.999045
0.999044
0.999044
0.999043
0.999042
0.999042
0.999041
0.99904
0.99904
0.999039
0.999038
0.999037
0.999036
0.999035
0.999035