/*--------------------------------*- C++ -*----------------------------------*\
  =========                 |
  \\      /  F ield         | OpenFOAM: The Open Source CFD Toolbox
   \\    /   O peration     | Website:  https://openfoam.org
    \\  /    A nd           | Version:  7
     \\/     M anipulation  |
\*---------------------------------------------------------------------------*/
FoamFile
{
    version     2.0;
    format      ascii;
    class       volScalarField;
    location    "1";
    object      p;
}
// * * * * * * * * * * * * * * * * * * * * * * * * * * * * * * * * * * * * * //

dimensions      [0 2 -2 0 0 0 0];

internalField   nonuniform List<scalar> 
108025
(
0.0879351
0.0891633
0.0898973
0.0903245
0.0908154
0.0914185
0.092046
0.0926632
0.0932856
0.093927
0.0945871
0.0952621
0.0959518
0.0966575
0.0973798
0.0981191
0.0988756
0.0996498
0.100442
0.101253
0.102083
0.102932
0.103801
0.10469
0.1056
0.106532
0.107485
0.108461
0.10946
0.110482
0.111528
0.112599
0.113695
0.114817
0.115965
0.117141
0.118344
0.119575
0.120836
0.122127
0.123448
0.1248
0.126185
0.127603
0.129054
0.13054
0.132061
0.133618
0.135213
0.136846
0.138518
0.14023
0.141983
0.143778
0.145617
0.147499
0.149427
0.151402
0.153424
0.155496
0.157617
0.15979
0.162016
0.164296
0.166632
0.169025
0.171476
0.173987
0.17656
0.179196
0.181897
0.184664
0.1875
0.190405
0.193383
0.196434
0.19956
0.202765
0.206049
0.209414
0.212864
0.216399
0.220023
0.223737
0.227543
0.231445
0.235445
0.239544
0.243746
0.248054
0.252469
0.256994
0.261632
0.266387
0.27126
0.276254
0.281372
0.286618
0.291993
0.297501
0.303145
0.308927
0.314851
0.320919
0.327134
0.3335
0.340017
0.346691
0.353522
0.360514
0.367668
0.374988
0.382475
0.390132
0.39796
0.405962
0.414137
0.422488
0.431016
0.439722
0.448605
0.457665
0.466904
0.476319
0.485909
0.495674
0.505611
0.515718
0.525991
0.536427
0.547023
0.557772
0.568671
0.579712
0.59089
0.602197
0.613624
0.625164
0.636807
0.648542
0.660359
0.672247
0.684192
0.696183
0.708205
0.720244
0.732286
0.744315
0.756315
0.768269
0.780162
0.791975
0.803691
0.815293
0.826763
0.838082
0.849233
0.860198
0.870959
0.881499
0.891802
0.90185
0.911628
0.921121
0.930313
0.939191
0.947743
0.955955
0.963818
0.971321
0.978455
0.985212
0.991587
0.997573
1.00317
1.00836
1.01316
1.01756
1.02156
1.02516
1.02837
1.03118
1.0336
1.03564
1.0373
1.03858
1.03949
1.04004
1.04022
1.04006
1.03955
1.03869
1.03749
1.03595
1.03406
1.03182
1.02919
1.02614
1.02249
1.0181
1.01186
1.00459
0.691898
0.692002
0.691878
0.691591
0.691318
0.69109
0.690867
0.69063
0.690387
0.690143
0.689898
0.689652
0.689403
0.689152
0.6889
0.688646
0.688391
0.688135
0.687878
0.687619
0.68736
0.687101
0.686841
0.686581
0.686321
0.686062
0.685803
0.685545
0.685289
0.685034
0.684781
0.68453
0.684282
0.684036
0.683794
0.683556
0.683322
0.683093
0.68287
0.682651
0.68244
0.682235
0.682037
0.681848
0.681667
0.681496
0.681334
0.681184
0.681045
0.680919
0.680806
0.680707
0.680623
0.680556
0.680505
0.680472
0.680458
0.680465
0.680493
0.680543
0.680617
0.680716
0.680842
0.680995
0.681177
0.68139
0.681635
0.681913
0.682227
0.682578
0.682967
0.683397
0.683869
0.684385
0.684946
0.685556
0.686216
0.686927
0.687693
0.688514
0.689394
0.690335
0.691339
0.692408
0.693545
0.694752
0.696032
0.697386
0.698819
0.700331
0.701926
0.703607
0.705376
0.707235
0.709188
0.711237
0.713384
0.715633
0.717986
0.720445
0.723013
0.725693
0.728487
0.731397
0.734427
0.737577
0.74085
0.744248
0.747773
0.751427
0.755212
0.759128
0.763177
0.767359
0.771677
0.776129
0.780717
0.78544
0.790297
0.795289
0.800414
0.805671
0.811057
0.81657
0.822208
0.827968
0.833845
0.839836
0.845935
0.852139
0.85844
0.864832
0.871309
0.877863
0.884487
0.89117
0.897905
0.904682
0.911489
0.918317
0.925154
0.931989
0.938808
0.9456
0.952351
0.959048
0.965678
0.972226
0.97868
0.985024
0.991244
0.997328
1.00326
1.00903
1.01462
1.02002
1.02522
1.0302
1.03496
1.03948
1.04375
1.04777
1.05153
1.05501
1.05822
1.06115
1.0638
1.06615
1.06822
1.06999
1.07148
1.07268
1.07359
1.07421
1.07456
1.07464
1.07444
1.07399
1.07327
1.07232
1.07112
1.06969
1.06804
1.06618
1.06411
1.06184
1.05939
1.05675
1.05393
1.05095
1.0478
1.04449
1.04101
1.03738
1.03357
1.02958
1.02539
1.02095
1.0162
1.01117
1.00566
1.00129
0.0246146
0.0256991
0.0263814
0.0267908
0.0272488
0.0278058
0.0283878
0.0289629
0.0295438
0.0301427
0.0307595
0.0313914
0.032038
0.0327005
0.0333795
0.0340755
0.0347888
0.0355198
0.0362691
0.037037
0.0378242
0.0386311
0.0394582
0.0403061
0.0411754
0.0420665
0.0429802
0.043917
0.0448776
0.0458625
0.0468726
0.0479083
0.0489706
0.05006
0.0511774
0.0523236
0.0534993
0.0547053
0.0559426
0.057212
0.0585144
0.0598507
0.061222
0.0626292
0.0640733
0.0655555
0.0670768
0.0686383
0.0702413
0.0718869
0.0735764
0.0753111
0.0770923
0.0789213
0.0807997
0.0827288
0.0847101
0.0867453
0.0888359
0.0909836
0.0931901
0.0954572
0.0977867
0.10018
0.10264
0.105169
0.107767
0.110438
0.113183
0.116005
0.118907
0.121889
0.124956
0.12811
0.131352
0.134686
0.138115
0.141641
0.145267
0.148996
0.152831
0.156776
0.160832
0.165005
0.169297
0.17371
0.17825
0.182919
0.18772
0.192658
0.197736
0.202957
0.208327
0.213847
0.219522
0.225357
0.231354
0.237517
0.243851
0.250359
0.257045
0.263913
0.270965
0.278207
0.285642
0.293272
0.301101
0.309132
0.317368
0.325812
0.334467
0.343334
0.352415
0.361713
0.371229
0.380963
0.390917
0.40109
0.411482
0.422093
0.432921
0.443964
0.45522
0.466686
0.478358
0.490232
0.502303
0.514564
0.52701
0.539632
0.552422
0.565372
0.578471
0.591708
0.605071
0.618549
0.632127
0.64579
0.659525
0.673314
0.68714
0.700987
0.714835
0.728666
0.742459
0.756196
0.769853
0.783412
0.79685
0.810145
0.823276
0.836221
0.848958
0.861466
0.873723
0.885709
0.897404
0.908787
0.91984
0.930545
0.940886
0.950845
0.960408
0.969563
0.978295
0.986596
0.994454
1.00186
1.00882
1.01531
1.02133
1.02689
1.03198
1.0366
1.04076
1.04445
1.04769
1.05047
1.05281
1.0547
1.05617
1.05721
1.05784
1.05806
1.05789
1.05733
1.05639
1.05508
1.05342
1.05139
1.04903
1.04631
1.04326
1.03986
1.03612
1.03202
1.02755
1.02269
1.01738
1.01172
1.00563
1.0009
0.372772
0.373086
0.373104
0.372908
0.372734
0.372624
0.372525
0.372411
0.372293
0.372178
0.372067
0.371958
0.371851
0.371745
0.371642
0.371542
0.371445
0.371351
0.371261
0.371174
0.371093
0.371016
0.370944
0.370877
0.370816
0.370762
0.370715
0.370675
0.370643
0.37062
0.370605
0.370601
0.370606
0.370623
0.370651
0.370692
0.370745
0.370813
0.370896
0.370994
0.371109
0.371242
0.371394
0.371565
0.371757
0.37197
0.372207
0.372469
0.372756
0.37307
0.373413
0.373786
0.37419
0.374627
0.3751
0.375608
0.376155
0.376743
0.377372
0.378046
0.378766
0.379534
0.380354
0.381226
0.382153
0.383139
0.384185
0.385294
0.38647
0.387714
0.38903
0.390421
0.391889
0.393439
0.395074
0.396796
0.398609
0.400518
0.402525
0.404635
0.406851
0.409177
0.411618
0.414177
0.416859
0.419667
0.422607
0.425683
0.428899
0.432259
0.435769
0.439433
0.443255
0.447241
0.451394
0.45572
0.460224
0.464909
0.469781
0.474843
0.480102
0.48556
0.491222
0.497092
0.503175
0.509473
0.515991
0.522731
0.529697
0.536892
0.544317
0.551976
0.559869
0.567997
0.576362
0.584964
0.593803
0.602877
0.612185
0.621726
0.631495
0.64149
0.651707
0.66214
0.672783
0.683629
0.694671
0.7059
0.717306
0.72888
0.740608
0.75248
0.764481
0.776596
0.788811
0.801109
0.813472
0.825882
0.83832
0.850765
0.863198
0.875596
0.887937
0.900198
0.912356
0.924388
0.93627
0.947976
0.959485
0.97077
0.981809
0.992578
1.00305
1.01322
1.02304
1.0325
1.04159
1.05028
1.05856
1.06641
1.07381
1.08076
1.08723
1.09323
1.09874
1.10376
1.10828
1.1123
1.11582
1.11883
1.12136
1.12338
1.12492
1.12598
1.12657
1.12669
1.12637
1.1256
1.12441
1.12281
1.12081
1.11843
1.11567
1.11256
1.10911
1.10533
1.10124
1.09684
1.09215
1.08718
1.08194
1.07644
1.07067
1.06464
1.05834
1.05178
1.04493
1.0378
1.0303
1.02256
1.0137
1.00525
-0.126178
-0.125102
-0.124412
-0.124001
-0.123546
-0.122991
-0.122407
-0.121829
-0.121245
-0.120641
-0.120017
-0.119377
-0.11872
-0.118046
-0.117353
-0.116641
-0.11591
-0.115159
-0.114387
-0.113594
-0.112779
-0.111941
-0.11108
-0.110195
-0.109286
-0.108351
-0.10739
-0.106402
-0.105386
-0.104341
-0.103267
-0.102162
-0.101026
-0.0998568
-0.0986544
-0.0974175
-0.0961448
-0.0948353
-0.0934879
-0.0921012
-0.090674
-0.0892051
-0.087693
-0.0861365
-0.0845339
-0.0828838
-0.0811848
-0.0794351
-0.0776332
-0.0757772
-0.0738655
-0.0718961
-0.0698673
-0.0677769
-0.0656231
-0.0634036
-0.0611164
-0.0587591
-0.0563294
-0.0538251
-0.0512434
-0.048582
-0.0458381
-0.0430091
-0.040092
-0.0370841
-0.0339822
-0.0307834
-0.0274844
-0.024082
-0.0205727
-0.0169531
-0.0132196
-0.0093686
-0.00539624
-0.00129867
0.00292808
0.0072881
0.0117856
0.0164247
0.02121
0.0261458
0.0312367
0.0364874
0.0419026
0.0474871
0.0532458
0.0591836
0.0653057
0.0716169
0.0781226
0.0848279
0.0917378
0.0988577
0.106193
0.113748
0.121529
0.12954
0.137787
0.146275
0.155008
0.163992
0.17323
0.182727
0.192488
0.202515
0.212814
0.223387
0.234237
0.245368
0.25678
0.268476
0.280458
0.292725
0.305278
0.318117
0.33124
0.344645
0.358331
0.372292
0.386526
0.401026
0.415787
0.430802
0.446062
0.461558
0.477279
0.493215
0.509353
0.525679
0.542178
0.558834
0.57563
0.592547
0.609567
0.626668
0.643828
0.661025
0.678235
0.695434
0.712595
0.729693
0.7467
0.76359
0.780333
0.796902
0.813268
0.829402
0.845276
0.860862
0.876132
0.891058
0.905613
0.919772
0.933509
0.946801
0.959626
0.971961
0.983788
0.995088
1.00585
1.01605
1.02568
1.03472
1.04319
1.05105
1.05832
1.06498
1.07104
1.07649
1.08135
1.08562
1.0893
1.0924
1.09493
1.09691
1.09834
1.09923
1.09961
1.09949
1.09888
1.09779
1.09625
1.09426
1.09185
1.08903
1.0858
1.0822
1.07821
1.07386
1.06916
1.06411
1.05871
1.05297
1.04689
1.04046
1.03367
1.02652
1.01899
1.01122
1.00352
0.998645
0.0369171
0.0374996
0.0377498
0.0377505
0.0377797
0.0378898
0.0380188
0.0381375
0.0382559
0.0383847
0.0385243
0.0386724
0.0388286
0.038994
0.0391693
0.039355
0.0395514
0.0397591
0.0399787
0.0402108
0.0404559
0.0407148
0.0409879
0.0412761
0.0415801
0.0419006
0.0422384
0.0425943
0.0429693
0.0433641
0.0437797
0.0442171
0.0446774
0.0451615
0.0456707
0.046206
0.0467686
0.0473599
0.0479811
0.0486336
0.0493188
0.0500383
0.0507934
0.051586
0.0524176
0.0532899
0.0542048
0.0551643
0.0561701
0.0572244
0.0583294
0.0594871
0.0606999
0.0619701
0.0633003
0.064693
0.0661508
0.0676764
0.0692729
0.0709429
0.0726898
0.0745165
0.0764265
0.078423
0.0805095
0.0826898
0.0849675
0.0873466
0.0898308
0.0924245
0.0951318
0.097957
0.100905
0.103979
0.107186
0.110529
0.114013
0.117645
0.121428
0.125368
0.129471
0.133742
0.138188
0.142813
0.147623
0.152625
0.157825
0.163228
0.168841
0.17467
0.180721
0.187
0.193515
0.200271
0.207273
0.21453
0.222046
0.229827
0.23788
0.246211
0.254824
0.263725
0.27292
0.282414
0.29221
0.302313
0.312727
0.323455
0.3345
0.345865
0.357551
0.36956
0.381893
0.394548
0.407525
0.420822
0.434437
0.448367
0.462605
0.477148
0.491988
0.507118
0.522529
0.53821
0.554151
0.570338
0.586758
0.603396
0.620235
0.637256
0.654442
0.671771
0.689221
0.706769
0.724391
0.742062
0.759754
0.777439
0.79509
0.812676
0.830167
0.847531
0.864738
0.881754
0.898549
0.915089
0.931342
0.947276
0.962859
0.97806
0.992849
1.0072
1.02107
1.03445
1.04731
1.05962
1.07136
1.08251
1.09305
1.10297
1.11225
1.12087
1.12884
1.13614
1.14276
1.14871
1.15398
1.15858
1.16251
1.16578
1.16839
1.17036
1.17169
1.1724
1.17251
1.17204
1.17099
1.16939
1.16726
1.16461
1.16148
1.15786
1.1538
1.1493
1.14439
1.13907
1.13338
1.12732
1.12092
1.11417
1.1071
1.0997
1.092
1.08398
1.07566
1.06703
1.05808
1.04884
1.03921
1.02941
1.01831
1.0076
-0.361473
-0.360294
-0.359499
-0.358999
-0.358456
-0.357805
-0.35712
-0.356437
-0.355744
-0.355027
-0.354287
-0.353525
-0.352742
-0.351937
-0.351108
-0.350255
-0.349377
-0.348473
-0.347543
-0.346585
-0.345599
-0.344584
-0.343538
-0.342462
-0.341353
-0.340211
-0.339034
-0.337822
-0.336574
-0.335287
-0.333961
-0.332595
-0.331187
-0.329736
-0.32824
-0.326698
-0.325108
-0.323468
-0.321778
-0.320034
-0.318236
-0.316382
-0.314469
-0.312496
-0.31046
-0.308359
-0.306192
-0.303956
-0.301647
-0.299265
-0.296806
-0.294268
-0.291648
-0.288943
-0.28615
-0.283267
-0.280289
-0.277215
-0.27404
-0.270761
-0.267374
-0.263877
-0.260264
-0.256532
-0.252678
-0.248696
-0.244583
-0.240334
-0.235945
-0.231411
-0.226727
-0.221889
-0.21689
-0.211727
-0.206393
-0.200884
-0.195193
-0.189316
-0.183245
-0.176976
-0.170502
-0.163818
-0.156916
-0.14979
-0.142435
-0.134843
-0.127008
-0.118923
-0.110583
-0.101979
-0.0931051
-0.083955
-0.0745219
-0.0647991
-0.05478
-0.0444582
-0.0338273
-0.0228813
-0.011614
-1.97127e-05
0.0119071
0.0241717
0.036779
0.0497335
0.0630393
0.0767002
0.0907193
0.105099
0.119842
0.134949
0.15042
0.166256
0.182456
0.199018
0.215938
0.233213
0.250839
0.268808
0.287115
0.30575
0.324704
0.343967
0.363524
0.383364
0.40347
0.423826
0.444414
0.465214
0.486205
0.507366
0.528671
0.550095
0.571611
0.593192
0.614807
0.636427
0.658018
0.67955
0.700987
0.722295
0.743439
0.764384
0.785093
0.805531
0.825661
0.845446
0.864853
0.883844
0.902387
0.920448
0.937994
0.954994
0.971419
0.987242
1.00244
1.01698
1.03084
1.04402
1.05648
1.06821
1.07921
1.08946
1.09895
1.10768
1.11565
1.12286
1.12931
1.13501
1.13996
1.14418
1.14767
1.15045
1.15254
1.15395
1.1547
1.15481
1.1543
1.15319
1.1515
1.14926
1.14649
1.1432
1.13943
1.13518
1.13049
1.12536
1.11983
1.11389
1.10758
1.10089
1.09385
1.08645
1.07871
1.07063
1.06221
1.05344
1.04434
1.03489
1.02507
1.01502
1.00498
0.99837
-0.335859
-0.334951
-0.334396
-0.334122
-0.333814
-0.333407
-0.33297
-0.332537
-0.332098
-0.331638
-0.331159
-0.330662
-0.330146
-0.329612
-0.329058
-0.328483
-0.327886
-0.327267
-0.326625
-0.325958
-0.325266
-0.324547
-0.323801
-0.323027
-0.322223
-0.321389
-0.320523
-0.319623
-0.318689
-0.317719
-0.316711
-0.315665
-0.314578
-0.313449
-0.312276
-0.311058
-0.309792
-0.308478
-0.307112
-0.305693
-0.304218
-0.302686
-0.301094
-0.29944
-0.297722
-0.295936
-0.29408
-0.292152
-0.290148
-0.288066
-0.285902
-0.283654
-0.281317
-0.278889
-0.276367
-0.273745
-0.271021
-0.268191
-0.265251
-0.262196
-0.259022
-0.255725
-0.2523
-0.248742
-0.245047
-0.241209
-0.237223
-0.233085
-0.228787
-0.224325
-0.219693
-0.214885
-0.209895
-0.204716
-0.199343
-0.193767
-0.187984
-0.181986
-0.175766
-0.169317
-0.162631
-0.155702
-0.148522
-0.141084
-0.133379
-0.125401
-0.117141
-0.108592
-0.0997454
-0.0905944
-0.0811309
-0.0713472
-0.0612357
-0.0507889
-0.0399994
-0.0288601
-0.0173638
-0.00550385
0.00672623
0.0193326
0.0323212
0.0456972
0.0594657
0.0736311
0.0881972
0.103167
0.118544
0.134329
0.150523
0.167127
0.18414
0.20156
0.219383
0.237608
0.256227
0.275235
0.294625
0.314386
0.33451
0.354983
0.375793
0.396924
0.41836
0.440083
0.462072
0.484307
0.506765
0.529419
0.552245
0.575214
0.598296
0.62146
0.644675
0.667905
0.691116
0.714271
0.737334
0.760265
0.783026
0.805578
0.82788
0.849893
0.871575
0.892887
0.91379
0.934243
0.954209
0.973651
0.992531
1.01082
1.02847
1.04547
1.06178
1.07737
1.09222
1.10631
1.11961
1.13211
1.1438
1.15466
1.16469
1.17387
1.18222
1.18971
1.19637
1.20219
1.20719
1.21136
1.21473
1.21732
1.21913
1.22018
1.2205
1.22011
1.21903
1.21729
1.2149
1.2119
1.20831
1.20416
1.19947
1.19426
1.18856
1.1824
1.17579
1.16876
1.16133
1.15351
1.14532
1.13677
1.12788
1.11865
1.1091
1.09921
1.08901
1.07848
1.06762
1.05645
1.04489
1.03321
1.0203
1.00833
-0.682407
-0.681001
-0.679979
-0.679274
-0.678525
-0.677654
-0.676739
-0.67582
-0.674885
-0.673919
-0.67292
-0.671891
-0.670833
-0.669744
-0.668622
-0.667466
-0.666275
-0.665049
-0.663785
-0.662483
-0.661141
-0.659759
-0.658334
-0.656865
-0.655351
-0.653791
-0.652182
-0.650523
-0.648812
-0.647048
-0.645229
-0.643352
-0.641417
-0.63942
-0.63736
-0.635235
-0.633042
-0.630779
-0.628443
-0.626033
-0.623545
-0.620977
-0.618326
-0.61559
-0.612764
-0.609846
-0.606834
-0.603722
-0.600509
-0.597191
-0.593763
-0.590223
-0.586566
-0.582788
-0.578886
-0.574854
-0.570688
-0.566384
-0.561937
-0.557342
-0.552594
-0.547688
-0.542619
-0.537381
-0.531968
-0.526375
-0.520596
-0.514624
-0.508453
-0.502077
-0.495489
-0.488683
-0.481651
-0.474387
-0.466883
-0.459132
-0.451126
-0.442858
-0.43432
-0.425503
-0.416401
-0.407005
-0.397307
-0.387299
-0.376972
-0.366318
-0.355329
-0.343996
-0.332312
-0.320268
-0.307855
-0.295067
-0.281894
-0.26833
-0.254366
-0.239996
-0.225213
-0.21001
-0.194382
-0.178322
-0.161824
-0.144886
-0.127502
-0.109669
-0.0913855
-0.0726483
-0.0534571
-0.0338118
-0.0137135
0.00683575
0.0278326
0.0492727
0.0711502
0.0934579
0.116187
0.139329
0.16287
0.186799
0.211099
0.235755
0.260749
0.28606
0.311666
0.337544
0.363669
0.390012
0.416546
0.443239
0.470059
0.496972
0.523941
0.550931
0.577901
0.604813
0.631626
0.658297
0.684783
0.711042
0.737029
0.7627
0.788011
0.812918
0.837377
0.861346
0.884781
0.907642
0.929889
0.951483
0.972388
0.99257
1.012
1.03063
1.04846
1.06544
1.08157
1.09681
1.11116
1.1246
1.13711
1.1487
1.15936
1.16908
1.17787
1.18574
1.19269
1.19873
1.20388
1.20815
1.21156
1.21414
1.21589
1.21684
1.21703
1.21647
1.2152
1.21323
1.2106
1.20734
1.20347
1.19903
1.19403
1.18852
1.1825
1.17601
1.16907
1.1617
1.15393
1.14576
1.13721
1.12831
1.11905
1.10945
1.09952
1.08925
1.07864
1.06771
1.05643
1.04483
1.03284
1.02065
1.00821
0.999346
-0.76355
-0.762226
-0.76127
-0.760628
-0.759944
-0.759141
-0.758293
-0.757439
-0.756568
-0.755666
-0.75473
-0.753763
-0.752766
-0.751737
-0.750673
-0.749573
-0.748437
-0.747264
-0.746051
-0.744797
-0.743502
-0.742162
-0.740778
-0.739347
-0.737867
-0.736336
-0.734754
-0.733117
-0.731424
-0.729673
-0.727861
-0.725987
-0.724049
-0.722043
-0.719967
-0.717818
-0.715595
-0.713294
-0.710913
-0.708448
-0.705896
-0.703254
-0.700519
-0.697687
-0.694755
-0.69172
-0.688576
-0.685321
-0.68195
-0.67846
-0.674844
-0.6711
-0.667223
-0.663207
-0.659048
-0.654741
-0.650279
-0.645659
-0.640873
-0.635917
-0.630784
-0.625468
-0.619963
-0.614263
-0.60836
-0.602247
-0.595918
-0.589365
-0.582581
-0.575559
-0.56829
-0.560766
-0.55298
-0.544922
-0.536586
-0.527961
-0.51904
-0.509813
-0.500272
-0.490407
-0.480209
-0.469669
-0.458778
-0.447526
-0.435904
-0.423902
-0.411512
-0.398723
-0.385528
-0.371916
-0.357879
-0.343409
-0.328496
-0.313133
-0.297313
-0.281026
-0.264268
-0.24703
-0.229308
-0.211096
-0.19239
-0.173185
-0.153478
-0.133268
-0.112553
-0.0913339
-0.0696105
-0.0473855
-0.0246623
-0.00144566
0.0222581
0.0464414
0.0710948
0.0962074
0.121767
0.147758
0.174166
0.200971
0.228154
0.255694
0.283565
0.311742
0.340198
0.368902
0.397822
0.426926
0.456176
0.485536
0.514966
0.544426
0.573873
0.603264
0.632553
0.661695
0.690643
0.719348
0.747763
0.77584
0.803529
0.830782
0.857552
0.883791
0.909452
0.934491
0.958864
0.982527
1.00544
1.02757
1.04887
1.06932
1.08888
1.10753
1.12524
1.14198
1.15775
1.17252
1.18629
1.19904
1.21077
1.22148
1.23117
1.23985
1.24752
1.2542
1.2599
1.26463
1.26841
1.27128
1.27324
1.27433
1.27457
1.27398
1.27261
1.27048
1.26762
1.26406
1.25984
1.25498
1.24952
1.24348
1.2369
1.22981
1.22222
1.21418
1.2057
1.1968
1.1875
1.17783
1.1678
1.15742
1.1467
1.13565
1.12428
1.11258
1.10056
1.08822
1.07555
1.06256
1.04918
1.03569
1.02109
1.00817
-1.09377
-1.09199
-1.09059
-1.08953
-1.08842
-1.08718
-1.08587
-1.08455
-1.0832
-1.08181
-1.08038
-1.0789
-1.07738
-1.07581
-1.07419
-1.07253
-1.07081
-1.06905
-1.06723
-1.06535
-1.06342
-1.06143
-1.05938
-1.05726
-1.05508
-1.05283
-1.05051
-1.04812
-1.04565
-1.04311
-1.04049
-1.03778
-1.03499
-1.03211
-1.02914
-1.02607
-1.02291
-1.01965
-1.01628
-1.0128
-1.00921
-1.00551
-1.00168
-0.997737
-0.993661
-0.989453
-0.985108
-0.980622
-0.975989
-0.971204
-0.966263
-0.96116
-0.95589
-0.950447
-0.944824
-0.939017
-0.933019
-0.926823
-0.920423
-0.913812
-0.906983
-0.89993
-0.892644
-0.885118
-0.877345
-0.869316
-0.861024
-0.852459
-0.843615
-0.834482
-0.825051
-0.815313
-0.805259
-0.794879
-0.784165
-0.773107
-0.761695
-0.749919
-0.737769
-0.725235
-0.712307
-0.698975
-0.68523
-0.67106
-0.656456
-0.641408
-0.625907
-0.609942
-0.593503
-0.576583
-0.559171
-0.541259
-0.522839
-0.503903
-0.484444
-0.464454
-0.443929
-0.422861
-0.401247
-0.379082
-0.356364
-0.33309
-0.30926
-0.284873
-0.259932
-0.234438
-0.208396
-0.181812
-0.154692
-0.127045
-0.0988829
-0.0702165
-0.0410603
-0.0114304
0.0186551
0.049176
0.0801104
0.111434
0.14312
0.17514
0.207463
0.240056
0.272884
0.305911
0.339096
0.372398
0.405776
0.439183
0.472574
0.505899
0.539112
0.572159
0.604992
0.637556
0.6698
0.70167
0.733114
0.764078
0.79451
0.824359
0.853573
0.882104
0.909904
0.936926
0.963126
0.988464
1.0129
1.0364
1.05892
1.08044
1.10094
1.12038
1.13875
1.15602
1.1722
1.18727
1.20121
1.21404
1.22576
1.23636
1.24586
1.25427
1.2616
1.26787
1.27311
1.27733
1.28056
1.28283
1.28416
1.2846
1.28416
1.28289
1.28081
1.27796
1.27438
1.2701
1.26516
1.25958
1.2534
1.24666
1.23939
1.2316
1.22335
1.21464
1.2055
1.19596
1.18604
1.17575
1.16511
1.15413
1.14281
1.13118
1.11922
1.10695
1.09436
1.08144
1.06819
1.05461
1.04065
1.02649
1.01185
1.00081
-1.26354
-1.26166
-1.26016
-1.25901
-1.25781
-1.25647
-1.25505
-1.25362
-1.25216
-1.25065
-1.24909
-1.24748
-1.24582
-1.24411
-1.24234
-1.24052
-1.23864
-1.23671
-1.23471
-1.23265
-1.23052
-1.22832
-1.22606
-1.22372
-1.22131
-1.21882
-1.21625
-1.2136
-1.21086
-1.20803
-1.2051
-1.20209
-1.19897
-1.19575
-1.19243
-1.189
-1.18545
-1.18179
-1.178
-1.17409
-1.17005
-1.16587
-1.16155
-1.15709
-1.15248
-1.14772
-1.14279
-1.1377
-1.13244
-1.127
-1.12138
-1.11557
-1.10956
-1.10335
-1.09693
-1.09029
-1.08343
-1.07633
-1.069
-1.06142
-1.05358
-1.04548
-1.03711
-1.02845
-1.01951
-1.01026
-1.00071
-0.990838
-0.980638
-0.970099
-0.959211
-0.947965
-0.936349
-0.924352
-0.911965
-0.899176
-0.885975
-0.872349
-0.858288
-0.843781
-0.828817
-0.813384
-0.797472
-0.781069
-0.764164
-0.746747
-0.728808
-0.710336
-0.691321
-0.671753
-0.651625
-0.630926
-0.609649
-0.587786
-0.565331
-0.542277
-0.51862
-0.494355
-0.469479
-0.443989
-0.417885
-0.391167
-0.363836
-0.335896
-0.307351
-0.278208
-0.248473
-0.218158
-0.187273
-0.155832
-0.123851
-0.0913472
-0.058341
-0.0248543
0.0090883
0.0434602
0.0782321
0.113373
0.148848
0.184622
0.220656
0.256909
0.293339
0.329899
0.366544
0.403223
0.439886
0.476481
0.512953
0.549247
0.585307
0.621077
0.656498
0.691512
0.726062
0.760089
0.793538
0.82635
0.858472
0.889849
0.920429
0.950162
0.979001
1.0069
1.03381
1.05971
1.08454
1.10828
1.13091
1.15238
1.17269
1.19181
1.20973
1.22645
1.24194
1.25622
1.26928
1.28113
1.29179
1.30125
1.30954
1.31668
1.32268
1.32759
1.33141
1.33418
1.33594
1.33672
1.33654
1.33545
1.33349
1.33069
1.32708
1.32272
1.31763
1.31185
1.30542
1.29837
1.29075
1.28258
1.27389
1.26473
1.2551
1.24505
1.2346
1.22376
1.21256
1.20101
1.18913
1.17693
1.16442
1.1516
1.13847
1.12504
1.11129
1.09723
1.08284
1.06814
1.05303
1.03782
1.02158
1.00772
-1.60387
-1.6015
-1.59953
-1.59793
-1.59627
-1.59444
-1.59253
-1.59059
-1.58861
-1.58657
-1.58446
-1.58229
-1.58005
-1.57775
-1.57538
-1.57294
-1.57042
-1.56783
-1.56516
-1.56241
-1.55958
-1.55666
-1.55365
-1.55055
-1.54736
-1.54406
-1.54067
-1.53717
-1.53356
-1.52983
-1.526
-1.52204
-1.51796
-1.51375
-1.50941
-1.50493
-1.50031
-1.49555
-1.49063
-1.48556
-1.48032
-1.47492
-1.46935
-1.4636
-1.45766
-1.45154
-1.44522
-1.43869
-1.43196
-1.42501
-1.41783
-1.41043
-1.40278
-1.39489
-1.38674
-1.37833
-1.36965
-1.36068
-1.35143
-1.34188
-1.33203
-1.32185
-1.31135
-1.30051
-1.28932
-1.27778
-1.26586
-1.25357
-1.24088
-1.2278
-1.2143
-1.20037
-1.18601
-1.1712
-1.15593
-1.14018
-1.12395
-1.10723
-1.08999
-1.07224
-1.05395
-1.03512
-1.01573
-0.995774
-0.975239
-0.954113
-0.932388
-0.910051
-0.887094
-0.863507
-0.839282
-0.81441
-0.788886
-0.762702
-0.735853
-0.708336
-0.680146
-0.651281
-0.621742
-0.591528
-0.560642
-0.529087
-0.496869
-0.463996
-0.430475
-0.396319
-0.361541
-0.326155
-0.290179
-0.253634
-0.216541
-0.178925
-0.140813
-0.102235
-0.0632225
-0.0238114
0.0159614
0.0560559
0.0964297
0.137038
0.177833
0.218765
0.259783
0.300832
0.341857
0.382801
0.423603
0.464205
0.504543
0.544556
0.584182
0.623356
0.662015
0.700098
0.73754
0.774282
0.810262
0.845423
0.879708
0.913062
0.945433
0.976773
1.00704
1.03618
1.06416
1.09095
1.11651
1.14082
1.16385
1.18558
1.206
1.2251
1.24287
1.25932
1.27444
1.28823
1.30072
1.31191
1.32182
1.33047
1.33789
1.34411
1.34915
1.35305
1.35584
1.35755
1.35823
1.35792
1.35665
1.35446
1.35141
1.34752
1.34284
1.33741
1.33127
1.32447
1.31703
1.30901
1.30042
1.29132
1.28172
1.27167
1.26119
1.2503
1.23903
1.2274
1.21544
1.20314
1.19053
1.17762
1.16441
1.15091
1.13711
1.12301
1.10861
1.0939
1.07886
1.06351
1.04775
1.03183
1.01523
1.00228
-1.85326
-1.85063
-1.84838
-1.84651
-1.84459
-1.84248
-1.84028
-1.83805
-1.83576
-1.8334
-1.83096
-1.82845
-1.82586
-1.8232
-1.82046
-1.81763
-1.81471
-1.81171
-1.80862
-1.80543
-1.80214
-1.79875
-1.79525
-1.79165
-1.78794
-1.7841
-1.78015
-1.77608
-1.77188
-1.76754
-1.76307
-1.75846
-1.7537
-1.74879
-1.74372
-1.73849
-1.7331
-1.72753
-1.72178
-1.71585
-1.70973
-1.70341
-1.69689
-1.69016
-1.68321
-1.67604
-1.66863
-1.66099
-1.65309
-1.64494
-1.63653
-1.62784
-1.61887
-1.60961
-1.60005
-1.59018
-1.57999
-1.56947
-1.55861
-1.54739
-1.53582
-1.52387
-1.51154
-1.49881
-1.48567
-1.47212
-1.45813
-1.44369
-1.4288
-1.41344
-1.3976
-1.38126
-1.36441
-1.34704
-1.32914
-1.31068
-1.29167
-1.27208
-1.2519
-1.23112
-1.20973
-1.18771
-1.16505
-1.14174
-1.11777
-1.09313
-1.0678
-1.04178
-1.01505
-0.987618
-0.959463
-0.930583
-0.900971
-0.870623
-0.839536
-0.807708
-0.775138
-0.741827
-0.707778
-0.672996
-0.637485
-0.601256
-0.564317
-0.526681
-0.488363
-0.44938
-0.409752
-0.3695
-0.32865
-0.287228
-0.245265
-0.202793
-0.159848
-0.116468
-0.0726949
-0.0285725
0.0158526
0.060531
0.105411
0.150437
0.195553
0.240701
0.285817
0.330841
0.375706
0.420348
0.464698
0.508689
0.552251
0.595317
0.637817
0.679683
0.720846
0.76124
0.8008
0.839463
0.877166
0.913851
0.949461
0.983945
1.01725
1.04933
1.08015
1.10966
1.13784
1.16465
1.19007
1.21407
1.23665
1.25779
1.27749
1.29574
1.31255
1.32792
1.34187
1.35441
1.36556
1.37535
1.3838
1.39095
1.39681
1.40144
1.40487
1.40713
1.40827
1.40834
1.40737
1.4054
1.4025
1.39869
1.39403
1.38856
1.38232
1.37537
1.36773
1.35946
1.35058
1.34115
1.3312
1.32076
1.30986
1.29854
1.28682
1.27472
1.26228
1.24951
1.23642
1.22304
1.20937
1.19541
1.18118
1.16667
1.15188
1.13681
1.12145
1.10578
1.08979
1.07349
1.05678
1.03997
1.02216
1.00731
-2.22419
-2.22098
-2.21816
-2.21575
-2.21327
-2.21058
-2.20779
-2.20494
-2.20202
-2.19901
-2.19591
-2.19272
-2.18944
-2.18606
-2.18257
-2.17899
-2.1753
-2.1715
-2.16758
-2.16355
-2.15939
-2.15511
-2.15071
-2.14616
-2.14148
-2.13666
-2.13169
-2.12657
-2.12129
-2.11585
-2.11025
-2.10447
-2.09851
-2.09236
-2.08603
-2.0795
-2.07277
-2.06583
-2.05867
-2.05129
-2.04367
-2.03582
-2.02772
-2.01937
-2.01075
-2.00187
-1.9927
-1.98325
-1.97349
-1.96343
-1.95305
-1.94235
-1.9313
-1.91991
-1.90816
-1.89604
-1.88354
-1.87064
-1.85734
-1.84362
-1.82948
-1.81489
-1.79984
-1.78433
-1.76833
-1.75184
-1.73484
-1.71732
-1.69926
-1.68065
-1.66148
-1.64172
-1.62137
-1.60042
-1.57884
-1.55663
-1.53376
-1.51023
-1.48602
-1.46112
-1.43552
-1.40919
-1.38214
-1.35435
-1.3258
-1.29648
-1.2664
-1.23553
-1.20387
-1.17141
-1.13815
-1.10409
-1.06921
-1.03352
-0.997017
-0.959703
-0.921581
-0.882657
-0.842937
-0.802432
-0.761153
-0.719115
-0.676333
-0.632827
-0.588619
-0.543734
-0.498199
-0.452045
-0.405304
-0.358014
-0.310213
-0.261945
-0.213255
-0.164191
-0.114804
-0.0651505
-0.015286
0.0347291
0.0848323
0.134959
0.185042
0.235012
0.284798
0.334329
0.383531
0.432328
0.480647
0.528413
0.575549
0.621982
0.667638
0.712444
0.756329
0.799225
0.841064
0.881784
0.921323
0.959623
0.996632
1.0323
1.06658
1.09943
1.13082
1.16072
1.18909
1.21593
1.2412
1.2649
1.28703
1.30758
1.32656
1.34398
1.35985
1.37419
1.38701
1.39835
1.40824
1.41671
1.42379
1.42953
1.43396
1.43713
1.43909
1.43987
1.43954
1.43813
1.4357
1.43229
1.42796
1.42276
1.41673
1.40991
1.40237
1.39414
1.38527
1.37579
1.36576
1.3552
1.34417
1.33268
1.32077
1.30847
1.29581
1.28281
1.26949
1.25588
1.24198
1.2278
1.21337
1.19867
1.18372
1.16851
1.15303
1.13728
1.12125
1.10493
1.08828
1.07133
1.05396
1.03645
1.01812
1.00356
-2.55065
-2.54697
-2.54368
-2.54081
-2.53786
-2.53469
-2.53138
-2.52801
-2.52456
-2.521
-2.51733
-2.51356
-2.50967
-2.50567
-2.50155
-2.4973
-2.49293
-2.48843
-2.48379
-2.47902
-2.4741
-2.46903
-2.4638
-2.45842
-2.45288
-2.44716
-2.44127
-2.4352
-2.42895
-2.4225
-2.41585
-2.409
-2.40194
-2.39466
-2.38715
-2.37941
-2.37143
-2.36319
-2.35471
-2.34595
-2.33693
-2.32762
-2.31802
-2.30812
-2.2979
-2.28737
-2.27651
-2.2653
-2.25374
-2.24182
-2.22953
-2.21685
-2.20377
-2.19028
-2.17636
-2.16202
-2.14722
-2.13196
-2.11622
-2.1
-2.08327
-2.06602
-2.04825
-2.02992
-2.01103
-1.99156
-1.9715
-1.95084
-1.92954
-1.90761
-1.88503
-1.86177
-1.83783
-1.81318
-1.78782
-1.76172
-1.73488
-1.70728
-1.6789
-1.64973
-1.61975
-1.58896
-1.55735
-1.52489
-1.49158
-1.45742
-1.42238
-1.38648
-1.34969
-1.31201
-1.27345
-1.234
-1.19366
-1.15243
-1.11031
-1.06732
-1.02346
-0.978747
-0.933185
-0.886795
-0.839594
-0.791605
-0.742853
-0.693363
-0.643168
-0.5923
-0.540797
-0.4887
-0.436051
-0.382897
-0.32929
-0.275281
-0.220929
-0.166292
-0.111434
-0.0564207
-0.00132013
0.0537964
0.108855
0.163782
0.218497
0.272923
0.32698
0.380586
0.433659
0.486118
0.53788
0.588865
0.638992
0.688183
0.736361
0.78345
0.82938
0.87408
0.917486
0.959535
1.00017
1.03934
1.07699
1.11308
1.14757
1.18043
1.21163
1.24115
1.26897
1.29509
1.31948
1.34217
1.36314
1.38241
1.40001
1.41593
1.43022
1.44291
1.45401
1.46358
1.47164
1.47825
1.48345
1.48728
1.4898
1.49106
1.49111
1.49
1.48779
1.48453
1.48027
1.47508
1.46899
1.46207
1.45436
1.44591
1.43678
1.42701
1.41664
1.40571
1.39428
1.38237
1.37002
1.35726
1.34413
1.33065
1.31685
1.30275
1.28837
1.27373
1.25883
1.24369
1.22832
1.21271
1.19687
1.18079
1.16446
1.14787
1.13102
1.11388
1.09642
1.07866
1.06047
1.04219
1.02291
1.00705
-2.96896
-2.96455
-2.96052
-2.95694
-2.95327
-2.94935
-2.94527
-2.9411
-2.93683
-2.93244
-2.92791
-2.92325
-2.91845
-2.91351
-2.90843
-2.9032
-2.89782
-2.89227
-2.88656
-2.88069
-2.87463
-2.8684
-2.86198
-2.85537
-2.84857
-2.84155
-2.83433
-2.82689
-2.81922
-2.81133
-2.80319
-2.79481
-2.78617
-2.77726
-2.76809
-2.75864
-2.7489
-2.73886
-2.72851
-2.71784
-2.70685
-2.69552
-2.68384
-2.6718