/*--------------------------------*- C++ -*----------------------------------*\
  =========                 |
  \\      /  F ield         | OpenFOAM: The Open Source CFD Toolbox
   \\    /   O peration     | Website:  https://openfoam.org
    \\  /    A nd           | Version:  7
     \\/     M anipulation  |
\*---------------------------------------------------------------------------*/
FoamFile
{
    version     2.0;
    format      ascii;
    class       surfaceScalarField;
    location    "1";
    object      phi;
}
// * * * * * * * * * * * * * * * * * * * * * * * * * * * * * * * * * * * * * //

dimensions      [0 3 -1 0 0 0 0];

internalField   nonuniform List<scalar> 
215362
(
37.6031
2.43925e-05
-37.6031
37.6031
2.50669e-05
37.6031
2.56801e-05
37.6031
2.63105e-05
37.6031
2.69579e-05
37.6031
2.77004e-05
37.6031
2.8383e-05
37.6031
2.90843e-05
37.6031
2.98825e-05
37.6031
3.06225e-05
37.6031
3.13829e-05
37.6031
3.21641e-05
37.6031
3.30447e-05
37.6031
3.38696e-05
37.6031
3.47175e-05
37.6031
3.56667e-05
37.6031
3.65625e-05
37.6031
3.74833e-05
37.6031
3.843e-05
37.6031
3.94811e-05
37.6031
4.05598e-05
37.6031
4.1589e-05
37.6031
4.26476e-05
37.603
4.37363e-05
37.603
4.49341e-05
37.603
4.60862e-05
37.603
4.73494e-05
37.603
4.85691e-05
37.603
4.9902e-05
37.603
5.11937e-05
37.603
5.25232e-05
37.603
5.39695e-05
37.603
5.54561e-05
37.603
5.69067e-05
37.603
5.84002e-05
37.603
6.00161e-05
37.603
6.1678e-05
37.603
6.33096e-05
37.603
6.50681e-05
37.6029
6.67997e-05
37.6029
6.86617e-05
37.6029
7.05002e-05
37.6029
7.24727e-05
37.6029
7.45034e-05
37.6029
7.65165e-05
37.6029
7.86697e-05
37.6029
8.08873e-05
37.6029
8.31716e-05
37.6029
8.54471e-05
37.6029
8.78719e-05
37.6028
9.02928e-05
37.6028
9.2946e-05
37.6028
9.55228e-05
37.6028
9.82596e-05
37.6028
0.000101004
37.6028
0.000103991
37.6028
0.000106992
37.6028
0.00011001
37.6028
0.000113204
37.6027
0.000116576
37.6027
0.000119899
37.6027
0.000123408
37.6027
0.000127029
37.6027
0.000130768
37.6027
0.000134705
37.6027
0.000138613
37.6027
0.000142806
37.6026
0.000146978
37.6026
0.000151445
37.6026
0.00015598
37.6026
0.000160664
37.6026
0.000165504
37.6026
0.000170582
37.6025
0.00017575
37.6025
0.000181168
37.6025
0.000186609
37.6025
0.000192392
37.6025
0.000198367
37.6024
0.000204463
37.6024
0.000210843
37.6024
0.000217358
37.6024
0.000224095
37.6024
0.000231215
37.6023
0.000238417
37.6023
0.000245864
37.6023
0.000253719
37.6023
0.000261682
37.6022
0.000269993
37.6022
0.000278584
37.6022
0.000287465
37.6022
0.000296645
37.6021
0.000306135
37.6021
0.000315944
37.6021
0.000326082
37.6021
0.00033656
37.602
0.00034739
37.602
0.000358658
37.602
0.000370222
37.6019
0.000382247
37.6019
0.00039459
37.6019
0.000407339
37.6018
0.000420585
37.6018
0.00043426
37.6017
0.000448299
37.6017
0.000462869
37.6017
0.000477904
37.6016
0.000493415
37.6016
0.000509414
37.6015
0.000525835
37.6015
0.000542921
37.6014
0.000560528
37.6014
0.000578512
37.6013
0.000597193
37.6013
0.000616348
37.6012
0.000636142
37.6012
0.000656427
37.6011
0.000677368
37.6011
0.000698894
37.601
0.000721012
37.601
0.000743727
37.6009
0.000766966
37.6008
0.000790966
37.6008
0.000815496
37.6007
0.000840713
37.6007
0.00086646
37.6006
0.000892892
37.6005
0.00091985
37.6004
0.000947484
37.6004
0.00097571
37.6003
0.00100452
37.6002
0.00103398
37.6001
0.00106384
37.6001
0.00109447
37.6
0.00112541
37.5999
0.00115708
37.5998
0.00118908
37.5997
0.00122161
37.5996
0.00125458
37.5996
0.00128803
37.5995
0.00132177
37.5994
0.00135585
37.5993
0.00139037
37.5992
0.001425
37.5991
0.00145999
37.599
0.001495
37.5989
0.00153028
37.5988
0.00156563
37.5987
0.001601
37.5986
0.00163625
37.5985
0.00167156
37.5984
0.00170664
37.5983
0.00174158
37.5981
0.00177618
37.598
0.0018106
37.5979
0.00184448
37.5978
0.00187813
37.5977
0.00191111
37.5976
0.00194359
37.5975
0.00197544
37.5974
0.00200659
37.5973
0.00203708
37.5972
0.00206685
37.597
0.00209561
37.5969
0.00212364
37.5968
0.00215066
37.5967
0.00217686
37.5966
0.00220198
37.5965
0.00222615
37.5964
0.00224928
37.5963
0.00227136
37.5962
0.00229238
37.596
0.0023125
37.5959
0.00233143
37.5958
0.00234958
37.5957
0.00236659
37.5956
0.00238282
37.5955
0.0023981
37.5954
0.00241273
37.5953
0.00242655
37.5952
0.00243982
37.5951
0.00245266
37.595
0.00246503
37.5949
0.00247723
37.5948
0.00248944
37.5947
0.00250174
37.5946
0.00251436
37.5945
0.00252768
37.5944
0.00254171
37.5943
0.00255689
37.5942
0.00257355
37.5941
0.00259193
37.594
0.00261245
37.5939
0.00263559
37.5938
0.00266191
37.5937
0.00269165
37.5937
0.00272579
37.5936
0.00276466
37.5935
0.00280916
37.5934
0.00285974
37.5933
0.00291702
37.5932
0.00297778
0.00304065
35.801
2.3528e-05
-35.8009
35.801
2.41799e-05
35.801
2.48488e-05
35.801
2.54573e-05
35.801
2.60829e-05
35.801
2.68038e-05
35.801
2.74651e-05
35.801
2.82231e-05
35.801
2.89226e-05
35.801
2.972e-05
35.801
3.0538e-05
35.801
3.12995e-05
35.801
3.2083e-05
35.801
3.2967e-05
35.801
3.38744e-05
35.801
3.4806e-05
35.801
3.56848e-05
35.801
3.66672e-05
35.801
3.75984e-05
35.801
3.86349e-05
35.801
3.96998e-05
35.801
4.0794e-05
35.801
4.18408e-05
35.801
4.29967e-05
35.801
4.41849e-05
35.801
4.54067e-05
35.801
4.65852e-05
35.801
4.7955e-05
35.801
4.92062e-05
35.801
5.05734e-05
35.801
5.19802e-05
35.801
5.34278e-05
35.801
5.49176e-05
35.801
5.64512e-05
35.801
5.79521e-05
35.801
5.96555e-05
35.801
6.13294e-05
35.801
6.30534e-05
35.801
6.48293e-05
35.801
6.66588e-05
35.801
6.86216e-05
35.801
7.04862e-05
35.801
7.2566e-05
35.801
7.46295e-05
35.801
7.67568e-05
35.801
7.9028e-05
35.801
8.12897e-05
35.801
8.36222e-05
35.801
8.61058e-05
35.801
8.85876e-05
35.801
9.1148e-05
35.801
9.38678e-05
35.801
9.6672e-05
35.801
9.94858e-05
35.801
0.000102468
35.801
0.000105466
35.801
0.00010864
35.801
0.000111914
35.801
0.000115292
35.801
0.000118701
35.801
0.000122378
35.801
0.000126015
35.801
0.000129851
35.8009
0.000133811
35.8009
0.0001379
35.8009
0.000142201
35.8009
0.000146486
35.8009
0.00015107
35.8009
0.000155724
35.8009
0.000160534
35.8009
0.000165581
35.8009
0.000170716
35.8009
0.0001761
35.8009
0.000181584
35.8009
0.000187331
35.8009
0.00019319
35.8009
0.000199324
35.8009
0.000205663
35.8009
0.000212213
35.8009
0.000218982
35.8009
0.000225978
35.8008
0.000233208
35.8008
0.000240681
35.8008
0.000248405
35.8008
0.000256467
35.8008
0.000264719
35.8008
0.000273325
35.8008
0.000282141
35.8008
0.00029133
35.8008
0.000300747
35.8007
0.000310636
35.8007
0.000320694
35.8007
0.000331244
35.8007
0.000341984
35.8007
0.000353238
35.8007
0.000364781
35.8006
0.000376781
35.8006
0.000389093
35.8006
0.000401885
35.8006
0.000415011
35.8006
0.000428716
35.8005
0.000442779
35.8005
0.000457211
35.8005
0.000472257
35.8005
0.000487772
35.8004
0.000503613
35.8004
0.000520178
35.8004
0.000537092
35.8004
0.000554674
35.8003
0.000572625
35.8003
0.000591266
35.8003
0.000610372
35.8002
0.000630032
35.8002
0.000650331
35.8002
0.000671201
35.8001
0.000692725
35.8001
0.000714677
35.8001
0.000737375
35.8
0.000760589
35.8
0.00078448
35.7999
0.000808971
35.7999
0.000834065
35.7998
0.000859839
35.7998
0.000886136
35.7997
0.00091311
35.7997
0.000940599
35.7997
0.000968832
35.7996
0.000997645
35.7996
0.00102695
35.7995
0.00105689
35.7994
0.00108737
35.7994
0.00111839
35.7993
0.00114998
35.7993
0.00118207
35.7992
0.00121462
35.7992
0.00124761
35.7991
0.00128108
35.799
0.00131494
35.799
0.00134914
35.7989
0.00138373
35.7989
0.00141859
35.7988
0.00145368
35.7987
0.00148895
35.7987
0.00152452
35.7986
0.00156002
35.7985
0.00159572
35.7985
0.00163141
35.7984
0.00166703
35.7983
0.00170261
35.7983
0.00173801
35.7982
0.00177316
35.7981
0.0018081
35.7981
0.00184268
35.798
0.00187691
35.7979
0.00191067
35.7979
0.00194389
35.7978
0.00197658
35.7977
0.0020087
35.7977
0.00204011
35.7976
0.00207075
35.7975
0.00210065
35.7975
0.00212968
35.7974
0.00215789
35.7974
0.00218522
35.7973
0.00221156
35.7972
0.00223689
35.7972
0.00226125
35.7971
0.0022847
35.7971
0.00230693
35.797
0.00232832
35.797
0.00234855
35.7969
0.0023678
35.7968
0.00238608
35.7968
0.00240342
35.7967
0.0024198
35.7967
0.00243532
35.7966
0.00245007
35.7966
0.00246403
35.7965
0.00247745
35.7965
0.00249019
35.7964
0.00250268
35.7964
0.00251475
35.7963
0.00252677
35.7963
0.00253875
35.7962
0.00255103
35.7962
0.00256359
35.7961
0.00257697
35.7961
0.00259119
35.796
0.0026066
35.796
0.0026236
35.7959
0.00264229
35.7959
0.00266328
35.7958
0.002687
35.7958
0.00271375
35.7957
0.00274419
35.7957
0.0027788
35.7956
0.00281809
35.7956
0.00286281
35.7955
0.00291358
35.7955
0.00297055
35.7954
0.00303411
0.00310174
34.0901
2.60544e-05
-34.0901
34.0901
2.6675e-05
34.0901
2.73915e-05
34.0901
2.81267e-05
34.0901
2.88802e-05
34.0901
2.95748e-05
34.0901
3.03668e-05
34.0901
3.11791e-05
34.0901
3.20123e-05
34.0901
3.27891e-05
34.0901
3.37438e-05
34.0901
3.45658e-05
34.0901
3.54893e-05
34.0901
3.64372e-05
34.0901
3.73325e-05
34.0901
3.84094e-05
34.0901
3.94353e-05
34.0901
4.04112e-05
34.0901
4.15713e-05
34.0901
4.26054e-05
34.09
4.38256e-05
34.09
4.49218e-05
34.09
4.62062e-05
34.09
4.74464e-05
34.09
4.87215e-05
34.09
5.00325e-05
34.09
5.14585e-05
34.09
5.27673e-05
34.09
5.42715e-05
34.09
5.57389e-05
34.09
5.73266e-05
34.09
5.88804e-05
34.09
6.04796e-05
34.09
6.21259e-05
34.09
6.39763e-05
34.09
6.56436e-05
34.09
6.75186e-05
34.09
6.94474e-05
34.09
7.1354e-05
34.0899
7.33962e-05
34.0899
7.54981e-05
34.0899
7.75839e-05
34.0899
7.98115e-05
34.0899
8.21053e-05
34.0899
8.44677e-05
34.0899
8.69011e-05
34.0899
8.93302e-05
34.0899
9.1991e-05
34.0899
9.46529e-05
34.0899
9.73187e-05
34.0899
0.000100225
34.0898
0.000103141
34.0898
0.000106225
34.0898
0.000109248
34.0898
0.000112524
34.0898
0.000115901
34.0898
0.000119305
34.0898
0.000122817
34.0898
0.00012652
34.0898
0.000130338
34.0898
0.0001342
34.0897
0.000138264
34.0897
0.000142458
34.0897
0.000146864
34.0897
0.000151254
34.0897
0.000155865
34.0897
0.000160625
34.0897
0.000165541
34.0896
0.000170694
34.0896
0.000175935
34.0896
0.000181427
34.0896
0.000187018
34.0896
0.000192872
34.0896
0.000198917
34.0895
0.000205082
34.0895
0.00021153
34.0895
0.000218268
34.0895
0.000225069
34.0895
0.000232254
34.0894
0.000239595
34.0894
0.00024718
34.0894
0.000255095
34.0894
0.000263269
34.0894
0.000271635
34.0893
0.000280434
34.0893
0.000289365
34.0893
0.000298671
34.0893
0.000308361
34.0892
0.000318289
34.0892
0.000328545
34.0892
0.000339215
34.0891
0.000350232
34.0891
0.000361608
34.0891
0.000373353
34.0891
0.000385478
34.089
0.000397994
34.089
0.000410991
34.0889
0.000424324
34.0889
0.000438238
34.0889
0.000452433
34.0888
0.000467232
34.0888
0.000482413
34.0888
0.000498066
34.0887
0.000514279
34.0887
0.000530986
34.0886
0.000548198
34.0886
0.000566003
34.0885
0.000584257
34.0885
0.000603047
34.0884
0.000622539
34.0884
0.000642431
34.0883
0.000663121
34.0883
0.00068415
34.0882
0.000705992
34.0882
0.000728265
34.0881
0.000751286
34.088
0.000774827
34.088
0.000799048
34.0879
0.00082395
34.0879
0.000849302
34.0878
0.000875416
34.0877
0.000902213
34.0877
0.000929456
34.0876
0.000957453
34.0875
0.000986041
34.0874
0.00101514
34.0874
0.00104504
34.0873
0.00107535
34.0872
0.00110628
34.0871
0.00113775
34.087
0.00116989
34.087
0.00120236
34.0869
0.00123547
34.0868
0.00126909
34.0867
0.00130297
34.0866
0.0013374
34.0865
0.00137218
34.0864
0.00140735
34.0863
0.0014428
34.0862
0.00147849
34.0861
0.00151444
34.086
0.00155055
34.0859
0.00158683
34.0858
0.00162324
34.0857
0.00165957
34.0856
0.001696
34.0855
0.00173224
34.0854
0.00176846
34.0853
0.00180438
34.0852
0.00184016
34.0851
0.00187559
34.085
0.00191069
34.0849
0.00194532
34.0848
0.00197941
34.0847
0.00201315
34.0846
0.00204608
34.0845
0.00207846
34.0844
0.00211016
34.0843
0.00214096
34.0842
0.00217112
34.0841
0.0022003
34.084
0.00222867
34.0839
0.00225596
34.0838
0.00228245
34.0837
0.00230781
34.0836
0.00233223
34.0835
0.00235554
34.0834
0.00237789
34.0833
0.00239904
34.0833
0.00241929
34.0832
0.00243844
34.0831
0.00245649
34.083
0.00247371
34.0829
0.00248982
34.0828
0.00250518
34.0827
0.00251953
34.0827
0.00253326
34.0826
0.00254613
34.0825
0.00255855
34.0824
0.00257047
34.0823
0.00258192
34.0823
0.00259321
34.0822
0.0026044
34.0821
0.00261566
34.082
0.00262726
34.0819
0.00263941
34.0819
0.0026521
34.0818
0.00266597
34.0817
0.002681
34.0816
0.00269757
34.0816
0.00271618
34.0815
0.00273704
34.0814
0.00276057
34.0814
0.00278729
34.0813
0.00281761
34.0812
0.0028523
34.0811
0.00289153
34.0811
0.00293617
34.081
0.0029869
34.0809
0.00304407
34.0808
0.00311183
0.003191
32.4576
2.55897e-05
-32.4576
32.4576
2.61996e-05
32.4576
2.69837e-05
32.4576
2.77092e-05
32.4576
2.83758e-05
32.4576
2.92175e-05
32.4576
2.99236e-05
32.4576
3.07285e-05
32.4576
3.16328e-05
32.4576
3.24037e-05
32.4576
3.32755e-05
32.4576
3.42489e-05
32.4576
3.5169e-05
32.4576
3.60367e-05
32.4576
3.70863e-05
32.4576
3.8163e-05
32.4576
3.91121e-05
32.4576
4.02459e-05
32.4576
4.12541e-05
32.4576
4.25267e-05
32.4576
4.35979e-05
32.4576
4.4858e-05
32.4576
4.61525e-05
32.4576
4.73267e-05
32.4576
4.87713e-05
32.4576
5.00982e-05
32.4576
5.14644e-05
32.4576
5.29493e-05
32.4576
5.44762e-05
32.4576
5.59691e-05
32.4576
5.75849e-05
32.4576
5.92475e-05
32.4576
6.08808e-05
32.4576
6.27198e-05
32.4576
6.44552e-05
32.4576
6.64e-05
32.4576
6.8245e-05
32.4576
7.02255e-05
32.4576
7.22658e-05
32.4576
7.44459e-05
32.4576
7.66124e-05
32.4576
7.88454e-05
32.4576
8.11473e-05
32.4576
8.35207e-05
32.4576
8.6046e-05
32.4576
8.86479e-05
32.4576
9.12516e-05
32.4576
9.40155e-05
32.4576
9.67869e-05
32.4576
9.97248e-05
32.4576
0.000102754
32.4576
0.000105801
32.4576
0.000109103
32.4576
0.00011235
32.4576
0.00011586
32.4576
0.000119401
32.4576
0.000123057
32.4576
0.00012683
32.4576
0.000130726
32.4576
0.000134904
32.4575
0.00013898
32.4575
0.000143349
32.4575
0.000147858
32.4575
0.000152514
32.4575
0.000157321
32.4575
0.000162286
32.4575
0.000167414
32.4575
0.00017271
32.4575
0.000178182
32.4575
0.000183912
32.4575
0.000189752
32.4575
0.000195865
32.4575
0.000202178
32.4575
0.000208622
32.4574
0.000215438
32.4574
0.000222321
32.4574
0.000229591
32.4574
0.000237022
32.4574
0.000244778
32.4574
0.000252712
32.4574
0.000260989
32.4574
0.000269538
32.4573
0.000278371
32.4573
0.000287495
32.4573
0.00029692
32.4573
0.000306735
32.4573
0.000316871
32.4573
0.00032726
32.4572
0.000338147
32.4572
0.00034923
32.4572
0.000360833
32.4572
0.000372809
32.4571
0.000385093
32.4571
0.00039785
32.4571
0.000411015
32.4571
0.000424599
32.457
0.00043869
32.457
0.000453146
32.457
0.00046821
32.4569
0.000483583
32.4569
0.000499587
32.4569
0.000516
32.4568
0.000532989
32.4568
0.000550564
32.4568
0.000568503
32.4567
0.000587127
32.4567
0.000606291
32.4567
0.000626004
32.4566
0.000646274
32.4566
0.000667189
32.4565
0.000688601
32.4565
0.000710749
32.4564
0.000733408
32.4564
0.000756815
32.4563
0.000780664
32.4563
0.000805191
32.4562
0.000830478
32.4562
0.000856213
32.4561
0.000882709
32.456
0.000909806
32.456
0.000937503
32.4559
0.000965793
32.4558
0.000994749
32.4558
0.00102436
32.4557
0.00105447
32.4556
0.0010852
32.4556
0.00111656
32.4555
0.00114844
32.4554
0.00118083
32.4553
0.00121378
32.4553
0.00124719
32.4552
0.00128112
32.4551
0.00131545
32.455
0.00135023
32.4549
0.00138536
32.4549
0.00142086
32.4548
0.00145663
32.4547
0.00149279
32.4546
0.00152896
32.4545
0.00156551
32.4544
0.00160206
32.4543
0.00163873
32.4543
0.00167546
32.4542
0.0017122
32.4541
0.00174873
32.454
0.00178524
32.4539
0.00182158
32.4538
0.00185762
32.4537
0.00189337
32.4536
0.00192871
32.4535
0.00196364
32.4535
0.00199818
32.4534
0.00203205
32.4533
0.00206541
32.4532
0.00209813
32.4531
0.00213008
32.453
0.00216127
32.4529
0.00219167
32.4529
0.00222123
32.4528
0.00224989
32.4527
0.00227762
32.4526
0.00230438
32.4526
0.00233013
32.4525
0.00235479
32.4524
0.00237855
32.4523
0.00240108
32.4523
0.0024227
32.4522
0.00244316
32.4522
0.00246255
32.4521
0.00248095
32.452
0.00249831
32.452
0.00251464
32.4519
0.00253
32.4519
0.00254441
32.4518
0.0025581
32.4518
0.00257089
32.4517
0.00258301
32.4517
0.00259448
32.4516
0.00260538
32.4516
0.00261598
32.4515
0.00262626
32.4515
0.00263635
32.4514
0.00264648
32.4514
0.00265675
32.4514
0.0026675
32.4513
0.00267877
32.4513
0.00269081
32.4512
0.00270409
32.4512
0.00271859
32.4512
0.00273476
32.4511
0.00275301
32.4511
0.00277364
32.4511
0.00279696
32.451
0.0028235
32.451
0.00285389
32.4509
0.0028884
32.4509
0.00292765
32.4509
0.00297231
32.4508
0.0030227
32.4508
0.00307922
32.4508
0.00313791
0.00319149
30.9058
2.76967e-05
-30.9058
30.9058
2.85067e-05
30.9058
2.92587e-05
30.9058
2.99535e-05
30.9058
3.08244e-05
30.9058
3.16383e-05
30.9058
3.2474e-05
30.9058
3.33323e-05
30.9058
3.42917e-05
30.9058
3.51973e-05
30.9058
3.61277e-05
30.9058
3.70838e-05
30.9058
3.81442e-05
30.9058
3.91543e-05
30.9058
4.02705e-05
30.9058
4.13383e-05
30.9058
4.24364e-05
30.9058
4.36436e-05
30.9058
4.48833e-05
30.9058
4.60787e-05
30.9058
4.73867e-05
30.9058
4.87305e-05
30.9058
5.00337e-05
30.9058
5.14532e-05
30.9058
5.29124e-05
30.9058
5.44129e-05
30.9058
5.58781e-05
30.9058
5.75432e-05
30.9058
5.90983e-05
30.9058
6.08563e-05
30.9057
6.25856e-05
30.9057
6.43655e-05
30.9057
6.6198e-05
30.9057
6.8085e-05
30.9057
7.01062e-05
30.9057
7.21079e-05
30.9057
7.41702e-05
30.9057
7.6373e-05
30.9057
7.85629e-05
30.9057
8.0898e-05
30.9057
8.33028e-05
30.9057
8.57021e-05
30.9057
8.8332e-05
30.9057
9.0884e-05
30.9057
9.35942e-05
30.9056
9.63879e-05
30.9056
9.92681e-05
30.9056
0.000102238
30.9056
0.000105379
30.9056
0.00010846
30.9056
0.000111875
30.9056
0.00011516
30.9056
0.000118786
30.9056
0.000122289
30.9056
0.000126142
30.9056
0.000130036
30.9055
0.000133977
30.9055
0.000138124
30.9055
0.000142482
30.9055
0.0001469
30.9055
0.000151462
30.9055
0.000156173
30.9055
0.000161115
30.9055
0.000166216
30.9054
0.000171483
30.9054
0.000176844
30.9054
0.000182459
30.9054
0.000188337
30.9054
0.000194327
30.9054
0.000200514
30.9053
0.000206906
30.9053
0.000213665
30.9053
0.000220487
30.9053
0.000227614
30.9053
0.000234976
30.9053
0.00024258
30.9052
0.000250514
30.9052
0.000258629
30.9052
0.000267091
30.9052
0.000275831
30.9051
0.000284779
30.9051
0.00029418
30.9051
0.000303887
30.9051
0.000313755
30.905
0.000324182
30.905
0.00033479
30.905
0.000345901
30.905
0.000357292
30.9049
0.000369052
30.9049
0.000381348
30.9049
0.000393878
30.9048
0.000406889
30.9048
0.000420391
30.9048
0.000434241
30.9047
0.000448605
30.9047
0.000463417
30.9046
0.000478766
30.9046
0.000494508
30.9046
0.000510811
30.9045
0.000527607
30.9045
0.000544986
30.9044
0.000562802
30.9044
0.000581222
30.9043
0.000600179
30.9043
0.000619759
30.9042
0.000639895
30.9042
0.000660596
30.9041
0.000681869
30.904
0.000703878
30.904
0.000726318
30.9039
0.000749507
30.9039
0.000773295
30.9038
0.000797686
30.9037
0.000822682
30.9037
0.000848441
30.9036
0.00087473
30.9035
0.000901705
30.9034
0.000929284
30.9034
0.000957465
30.9033
0.000986397
30.9032
0.00101584
30.9031
0.00104594
30.9031
0.00107669
30.903
0.00110791
30.9029
0.00113983
30.9028
0.00117219
30.9027
0.00120521
30.9026
0.00123871
30.9025
0.00127267
30.9024
0.00130721
30.9023
0.00134199
30.9022
0.00137737
30.9021
0.00141309
30.9021
0.0014491
30.902
0.00148544
30.9018
0.00152207
30.9017
0.00155879
30.9016
0.00159587
30.9015
0.00163294
30.9014
0.00167018
30.9013
0.0017074
30.9012
0.00174453
30.9011
0.00178167
30.901
0.00181861
30.9009
0.00185537
30.9008
0.00189188
30.9007
0.0019281
30.9006
0.00196387
30.9005
0.0019993
30.9004
0.00203417
30.9003
0.0020685
30.9002
0.00210223
30.9001
0.00213537
30.9
0.00216773
30.8999
0.00219932
30.8998
0.00223009
30.8997
0.00226
30.8996
0.00228899
30.8995
0.00231712
30.8994
0.00234425
30.8993
0.00237029
30.8992
0.00239536
30.8991
0.00241935
30.899
0.00244233
30.8989
0.00246413
30.8988
0.00248498
30.8988
0.00250464
30.8987
0.00252319
30.8986
0.00254081
30.8985
0.00255729
30.8985
0.0025728
30.8984
0.00258738
30.8983
0.00260099
30.8982
0.00261378
30.8982
0.00262571
30.8981
0.00263695
30.898
0.00264756
30.898
0.00265764
30.8979
0.00266722
30.8979
0.00267649
30.8978
0.00268565
30.8977
0.00269461
30.8977
0.00270383
30.8976
0.00271318
30.8976
0.00272315
30.8975
0.00273372
30.8975
0.00274527
30.8974
0.00275789
30.8974
0.0027721
30.8973
0.00278787
30.8972
0.00280594
30.8972
0.00282634
30.8971
0.00284963
30.8971
0.00287617
30.897
0.00290649
30.897
0.0029411
30.8969
0.00298055
30.8969
0.00302525
30.8968
0.00307627
30.8968
0.00313357
30.8967
0.00320508
0.00329519
29.4264
2.80602e-05
-29.4264
29.4264
2.88023e-05
29.4264
2.95652e-05
29.4264
3.03497e-05
29.4264
3.12336e-05
29.4264
3.20616e-05
29.4264
3.29126e-05
29.4264
3.38653e-05
29.4264
3.47647e-05
29.4264
3.57674e-05
29.4264
3.67187e-05
29.4264
3.77749e-05
29.4264
3.88594e-05
29.4264
3.98952e-05
29.4264
4.09612e-05
29.4264
4.22141e-05
29.4264
4.33436e-05
29.4264
4.45845e-05
29.4264
4.57823e-05
29.4264
4.71715e-05
29.4264
4.84424e-05
29.4264
4.99073e-05
29.4264
5.12566e-05
29.4264
5.28027e-05
29.4264
5.43139e-05
29.4264
5.58694e-05
29.4264
5.74709e-05
29.4264
5.91199e-05
29.4264
6.08962e-05
29.4264
6.26457e-05
29.4264
6.44483e-05
29.4264
6.63836e-05
29.4264
6.83759e-05
29.4264
7.03494e-05
29.4264
7.2462e-05
29.4264
7.4638e-05
29.4264
7.68798e-05
29.4264
7.9112e-05
29.4264
8.14928e-05
29.4264
8.40248e-05
29.4264
8.64773e-05
29.4264
8.91643e-05
29.4264
9.18554e-05
29.4264
9.47092e-05
29.4264
9.75732e-05
29.4263
0.000100528
29.4263
0.000103656
29.4263
0.000106883
29.4263
0.000110133
29.4263
0.000113644
29.4263
0.00011711
29.4263
0.000120767
29.4263
0.00012462
29.4263
0.000128517
29.4263
0.000132541
29.4263
0.000136775
29.4263
0.000141067
29.4263
0.000145579
29.4263
0.000150237
29.4263
0.000155048
29.4263
0.000160016
29.4262
0.000165147
29.4262
0.000170449
29.4262
0.000176003
29.4262
0.000181662
29.4262
0.000187665
29.4262
0.000193708
29.4262
0.000200031
29.4262
0.000206564
29.4262
0.000213315
29.4261
0.000220368
29.4261
0.000227575
29.4261
0.00023518
29.4261
0.000242878
29.4261
0.000250912
29.4261
0.00025929
29.426
0.000267867
29.426
0.000276806
29.426
0.000285962
29.426
0.000295578
29.426
0.000305353
29.426
0.000315686
29.4259
0.000326198
29.4259
0.000337056
29.4259
0.000348426
29.4259
0.000360084
29.4258
0.000372121
29.4258
0.000384703
29.4258
0.000397531
29.4257
0.000410848
29.4257
0.000424667
29.4257
0.000438921
29.4256
0.000453622
29.4256
0.000468781
29.4256
0.000484411
29.4255
0.0005006
29.4255
0.000517361
29.4255
0.000534547
29.4254
0.000552249
29.4254
0.000570633
29.4253
0.000589475
29.4253
0.000608864
29.4252
0.000628965
29.4252
0.000649553
29.4251
0.000670716
29.4251
0.000692617
29.425
0.000715029
29.425
0.000738115
29.4249
0.000761803
29.4249
0.000786174
29.4248
0.000811156
29.4247
0.000836749
29.4247
0.000863034
29.4246
0.000889932
29.4245
0.000917519
29.4245
0.000945793
29.4244
0.000974593
29.4243
0.00100407
29.4242
0.00103413
29.4242
0.00106493
29.4241
0.00109629
29.424
0.00112821
29.4239
0.00116066
29.4238
0.00119378
29.4237
0.0012274
29.4236
0.00126148
29.4236
0.00129609
29.4235
0.00133119
29.4234
0.00136668
29.4233
0.0014026
29.4232
0.00143891
29.4231
0.00147549
29.423
0.00151238
29.4229
0.00154955
29.4228
0.00158685
29.4227
0.00162433
29.4226
0.00166194
29.4225
0.00169961
29.4224
0.00173729
29.4223
0.00177486
29.4222
0.00181233
29.4221
0.00184964
29.4219
0.00188674
29.4218
0.00192355
29.4217
0.00195995
29.4216
0.00199611
29.4215
0.00203165
29.4214
0.00206674
29.4213
0.00210117
29.4212
0.00213505
29.4211
0.00216822
29.421
0.00220065
29.4209
0.00223234
29.4208
0.00226303
29.4207
0.00229296
29.4206
0.00232187
29.4206
0.00234988
29.4205
0.00237693
29.4204
0.00240285
29.4203
0.00242769
29.4202
0.00245157
29.4201
0.00247433
29.4201
0.00249587
29.42
0.00251642
29.4199
0.00253582
29.4198
0.00255407
29.4198
0.00257127
29.4197
0.00258751
29.4197
0.0026025
29.4196
0.00261666
29.4195
0.00262972
29.4195
0.00264196
29.4194
0.00265334
29.4194
0.00266385
29.4193
0.00267365
29.4193
0.00268287
29.4192
0.00269138
29.4192
0.00269959
29.4192
0.00270744
29.4191
0.00271498
29.4191
0.00272248
29.4191
0.00273002
29.419
0.00273782
29.419
0.0027459
29.419
0.00275469
29.4189
0.00276415
29.4189
0.00277474
29.4189
0.00278655
29.4188
0.00279992
29.4188
0.00281509
29.4188
0.00283244
29.4188
0.00285241
29.4187
0.00287523
29.4187
0.00290141
29.4187
0.00293148
29.4187
0.00296578
29.4186
0.00300501
29.4186
0.00304978
29.4186
0.00310038
29.4186
0.00315773
29.4185
0.00321657
0.00326682
28.0193
3.0192e-05
-28.0193
28.0193
3.1063e-05
28.0193
3.19565e-05
28.0193
3.27178e-05
28.0193
3.36581e-05
28.0193
3.46224e-05
28.0193
3.55338e-05
28.0193
3.65489e-05
28.0193
3.75908e-05
28.0193
3.85827e-05
28.0193
3.9681e-05
28.0193
4.07311e-05
28.0193
4.19676e-05
28.0193
4.30803e-05
28.0193
4.43037e-05
28.0193
4.55612e-05
28.0192
4.6854e-05
28.0192
4.81833e-05
28.0192
4.96283e-05
28.0192
5.09569e-05
28.0192
5.24818e-05
28.0192
5.3893e-05
28.0192
5.55036e-05
28.0192
5.71593e-05
28.0192
5.8784e-05
28.0192
6.04573e-05
28.0192
6.22586e-05
28.0192
6.40343e-05
28.0192
6.59418e-05
28.0192
6.79053e-05
28.0192
6.9927e-05
28.0192
7.1931e-05
28.0192
7.41531e-05
28.0192
7.62843e-05
28.0192
7.85604e-05
28.0192
8.09841e-05
28.0191
8.34021e-05
28.0191
8.5895e-05
28.0191
8.85434e-05
28.0191
9.11946e-05
28.0191
9.39294e-05
28.0191
9.68287e-05
28.0191
9.98179e-05
28.0191
0.0001029
28.0191
0.000106002
28.0191
0.000109359
28.0191
0.000112743
28.0191
0.000116235
28.0191
0.000119839
28.019
0.000123637
28.019
0.000127478
28.019
0.000131522
28.019
0.000135696
28.019
0.000139926
28.019
0.000144374
28.019
0.000149044
28.019
0.000153787
28.0189
0.000158685
28.0189
0.000163823
28.0189
0.000169051
28.0189
0.000174529
28.0189
0.000180188
28.0189
0.000186033
28.0189
0.000192071
28.0188
0.000198387
28.0188
0.000204833
28.0188
0.000211571
28.0188
0.000218455
28.0188
0.000225724
28.0188
0.000233154
28.0187
0.000240831
28.0187
0.000248763
28.0187
0.000257115
28.0187
0.000265586
28.0186
0.000274416
28.0186
0.000283617
28.0186
0.000293042
28.0186
0.000302856
28.0185
0.000312993
28.0185
0.000323463
28.0185
0.000334276
28.0185
0.00034552
28.0184
0.00035713
28.0184
0.000369038
28.0184
0.000381567
28.0183
0.000394261
28.0183
0.000407599
28.0182
0.000421204
28.0182
0.000435399
28.0182
0.000450039
28.0181
0.000465059
28.0181
0.000480704
28.018
0.000496753
28.018
0.00051345
28.018
0.000530495
28.0179
0.000548211
28.0179
0.000566377
28.0178
0.000585235
28.0178
0.000604564
28.0177
0.000624529
28.0176
0.000645061
28.0176
0.000666248
28.0175
0.000688021
28.0175
0.000710386
28.0174
0.00073343
28.0173
0.000757079
28.0173
0.000781419
28.0172
0.000806296
28.0171
0.000831948
28.0171
0.000858221
28.017
0.000885194
28.0169
0.000912709
28.0168
0.000940998
28.0168
0.000969824
28.0167
0.000999415
28.0166
0.00102961
28.0165
0.00106039
28.0164
0.00109183
28.0163
0.00112392
28.0162
0.00115648
28.0161
0.0011898
28.016
0.00122356
28.016
0.00125781
28.0159
0.00129268
28.0158
0.00132806
28.0156
0.00136378
28.0155
0.00140001
28.0154
0.00143659
28.0153
0.00147362
28.0152
0.00151075
28.0151
0.00154841
28.015
0.00158608
28.0149
0.00162411
28.0148
0.0016622
28.0147
0.00170031
28.0146
0.00173854
28.0144
0.00177668
28.0143
0.00181474
28.0142
0.00185275
28.0141
0.00189048
28.014
0.00192796
28.0139
0.00196512
28.0137
0.00200191
28.0136
0.00203833
28.0135
0.00207408
28.0134
0.00210944
28.0133
0.00214416
28.0132
0.00217812
28.0131
0.00221135
28.013
0.00224393
28.0129
0.00227551
28.0127
0.00230634
28.0126
0.00233623
28.0125
0.00236513
28.0124
0.002393
28.0123
0.00241988
28.0122
0.00244567
28.0122
0.00247041
28.0121
0.00249393
28.012
0.00251651
28.0119
0.00253777
28.0118
0.00255808
28.0117
0.00257712
28.0116
0.00259507
28.0116
0.00261184
28.0115
0.00262769
28.0114
0.00264234
28.0114
0.00265595
28.0113
0.00266858
28.0112
0.00268025
28.0112
0.00269109
28.0111
0.00270092
28.011
0.00271012
28.011
0.00271859
28.0109
0.00272626
28.0109
0.0027336
28.0108
0.00274038
28.0108
0.00274679
28.0107
0.00275301
28.0107
0.00275916
28.0107
0.00276522
28.0106
0.00277156
28.0106
0.00277826
28.0105
0.00278533
28.0105
0.00279318
28.0105
0.00280196
28.0104
0.00281178
28.0104
0.00282299
28.0104
0.00283598
28.0103
0.00285075
28.0103
0.00286784
28.0102
0.00288761
28.0102
0.00291027
28.0102
0.00293648
28.0101
0.00296646
28.0101
0.00300093
28.0101
0.00304038
28.01
0.00308513
28.01
0.00313635
28.01
0.00319387
28.0099
0.00326595
0.00335819
26.6784
3.1423e-05
-26.6784
26.6784
3.22507e-05
26.6784
3.31802e-05
26.6784
3.4135e-05
26.6784
3.50371e-05
26.6784
3.60429e-05
26.6784
3.70757e-05
26.6784
3.80585e-05
26.6784
3.91482e-05
26.6784
4.02678e-05
26.6784
4.14185e-05
26.6784
4.26013e-05
26.6784
4.38174e-05
26.6784
4.50679e-05
26.6784
4.64321e-05
26.6784
4.76776e-05
26.6784
4.91172e-05
26.6784
5.04409e-05
26.6784
5.20393e-05
26.6783
5.34469e-05
26.6783
5.50546e-05
26.6783
5.67081e-05
26.6783
5.83314e-05
26.6783
6.00041e-05
26.6783
6.18837e-05
26.6783
6.36607e-05
26.6783
6.55707e-05
26.6783
6.74599e-05
26.6783
6.9564e-05
26.6783
7.16518e-05
26.6783
7.38033e-05
26.6783
7.6021e-05
26.6783
7.83073e-05
26.6783
8.07426e-05
26.6783
8.31739e-05
26.6783
8.57598e-05
26.6783
8.83473e-05
26.6783
9.10953e-05
26.6783
9.39288e-05
26.6783
9.67734e-05
26.6783
9.98659e-05
26.6783
0.000102976
26.6783
0.000106108
26.6782
0.000109499
26.6782
0.000112996
26.6782
0.000116527
26.6782
0.000120173
26.6782
0.000124016
26.6782
0.000127983
26.6782
0.000132079
26.6782
0.000136309
26.6782
0.000140677
26.6782
0.000145188
26.6782
0.000149927
26.6782
0.000154742
26.6781
0.000159873
26.6781
0.000164937
26.6781
0.000170408
26.6781
0.000175979
26.6781
0.000181813
26.6781
0.000187684
26.6781
0.000193988
26.6781
0.000200342
26.678
0.000206988
26.678
0.000213856
26.678
0.000220954
26.678
0.000228367
26.678
0.000236026
26.678
0.000243861
26.6779
0.000252039
26.6779
0.000260567
26.6779
0.000269221
26.6779
0.000278401
26.6778
0.000287727
26.6778
0.000297442
26.6778
0.000307557
26.6778
0.000317926
26.6778
0.000328716
26.6777
0.000339861
26.6777
0.00035137
26.6777
0.000363257
26.6776
0.000375609
26.6776
0.00038836
26.6776
0.000401523
26.6775
0.000415187
26.6775
0.000429286
26.6775
0.000443754
26.6774
0.000458915
26.6774
0.000474313
26.6774
0.000490429
26.6773
0.000506961
26.6773
0.000524079
26.6772
0.000541715
26.6772
0.000559881
26.6771
0.000578666
26.6771
0.000597926
26.677
0.000617904
26.677
0.000638454
26.6769
0.000659665