/*--------------------------------*- C++ -*----------------------------------*\
  =========                 |
  \\      /  F ield         | OpenFOAM: The Open Source CFD Toolbox
   \\    /   O peration     | Website:  https://openfoam.org
    \\  /    A nd           | Version:  7
     \\/     M anipulation  |
\*---------------------------------------------------------------------------*/
FoamFile
{
    version     2.0;
    format      ascii;
    class       volVectorField;
    location    "1";
    object      U;
}
// * * * * * * * * * * * * * * * * * * * * * * * * * * * * * * * * * * * * * //

dimensions      [0 1 -1 0 0 0 0];

internalField   nonuniform List<vector> 
108025
(
(77.8123 0.0100121 0)
(77.8123 0.0100285 1.19523e-29)
(77.8123 0.0100454 0)
(77.8123 0.0100628 0)
(77.8123 0.0100806 0)
(77.8123 0.0100987 0)
(77.8123 0.0101173 0)
(77.8123 0.0101364 -1.49795e-21)
(77.8122 0.0101558 1.49803e-21)
(77.8122 0.0101758 2.39951e-29)
(77.8122 0.0101962 -2.40079e-29)
(77.8122 0.0102172 1.54065e-21)
(77.8122 0.0102386 -1.54072e-21)
(77.8122 0.0102605 0)
(77.8122 0.010283 0)
(77.8122 0.010306 -1.5875e-21)
(77.8122 0.0103295 1.58756e-21)
(77.8122 0.0103536 2.41075e-29)
(77.8122 0.0103783 1.62556e-21)
(77.8121 0.0104036 -1.62562e-21)
(77.8121 0.0104295 0)
(77.8121 0.010456 2.41746e-29)
(77.8121 0.0104831 0)
(77.8121 0.0105109 0)
(77.8121 0.0105394 -4.84613e-29)
(77.8121 0.0105686 4.85011e-29)
(77.8121 0.0105984 0)
(77.812 0.010629 4.85846e-29)
(77.812 0.0106603 0)
(77.812 0.0106923 -4.86736e-29)
(77.812 0.0107252 0)
(77.812 0.0107588 0)
(77.812 0.0107932 1.84252e-21)
(77.812 0.0108284 -1.84257e-21)
(77.812 0.0108645 1.87966e-21)
(77.8119 0.0109015 -1.87971e-21)
(77.8119 0.0109393 0)
(77.8119 0.0109781 -4.90942e-29)
(77.8119 0.0110178 -9.83102e-29)
(77.8119 0.0110584 -1.98044e-21)
(77.8119 0.0111 1.98049e-21)
(77.8118 0.0111426 -2.02417e-21)
(77.8118 0.0111862 2.02421e-21)
(77.8118 0.0112309 2.06999e-21)
(77.8118 0.0112766 -4.16376e-21)
(77.8118 0.0113234 2.09376e-21)
(77.8117 0.0113713 0)
(77.8117 0.0114204 -2.16836e-21)
(77.8117 0.0114706 2.1684e-21)
(77.8117 0.0115221 0)
(77.8117 0.0115747 0)
(77.8116 0.0116286 1.00333e-28)
(77.8116 0.0116837 1.0053e-28)
(77.8116 0.0117401 0)
(77.8116 0.0117979 0)
(77.8115 0.011857 0)
(77.8115 0.0119175 2.42682e-21)
(77.8115 0.0119794 -2.42686e-21)
(77.8115 0.0120427 -2.0372e-28)
(77.8114 0.0121075 2.52602e-21)
(77.8114 0.0121738 -2.52606e-21)
(77.8114 0.0122416 0)
(77.8114 0.012311 0)
(77.8113 0.0123819 2.064e-28)
(77.8113 0.0124545 0)
(77.8113 0.0125286 0)
(77.8112 0.0126045 0)
(77.8112 0.012682 2.82831e-21)
(77.8112 0.0127613 4.2024e-23)
(77.8111 0.0128423 4.30571e-23)
(77.8111 0.0129252 -5.87111e-21)
(77.8111 0.0130098 2.95765e-21)
(77.811 0.0130962 -3.04921e-21)
(77.811 0.0131846 3.04924e-21)
(77.811 0.0132748 -4.28413e-28)
(77.8109 0.0133669 4.30146e-28)
(77.8109 0.013461 0)
(77.8108 0.013557 4.33795e-28)
(77.8108 0.013655 4.35714e-28)
(77.8107 0.013755 3.40747e-21)
(77.8107 0.0138571 -3.4075e-21)
(77.8107 0.0139612 4.41876e-28)
(77.8106 0.0140674 8.88144e-28)
(77.8106 0.0141756 8.92685e-28)
(77.8105 0.014286 0)
(77.8105 0.0143984 -3.76764e-21)
(77.8104 0.014513 3.76767e-21)
(77.8104 0.0146297 9.12433e-28)
(77.8103 0.0147485 9.1779e-28)
(77.8102 0.0148694 4.03916e-21)
(77.8102 0.0149925 7.21451e-23)
(77.8101 0.0151177 -8.29669e-21)
(77.8101 0.015245 4.18535e-21)
(77.81 0.0153744 0)
(77.81 0.0155059 -9.53839e-28)
(77.8099 0.0156395 0)
(77.8098 0.0157751 1.93494e-27)
(77.8098 0.0159127 0)
(77.8097 0.0160523 1.96395e-27)
(77.8096 0.0161939 -1.97914e-27)
(77.8095 0.0163373 0)
(77.8095 0.0164826 0)
(77.8094 0.0166297 5.13101e-21)
(77.8093 0.0167785 -5.13104e-21)
(77.8092 0.0169289 2.06234e-27)
(77.8091 0.017081 0)
(77.8091 0.0172345 0)
(77.809 0.0173894 0)
(77.8089 0.0175457 5.76283e-21)
(77.8088 0.0177031 -1.16399e-20)
(77.8087 0.0178616 5.87706e-21)
(77.8086 0.018021 0)
(77.8085 0.0181812 -6.23568e-21)
(77.8084 0.0183421 -1.24973e-22)
(77.8083 0.0185035 1.28492e-20)
(77.8082 0.0186652 -6.4885e-21)
(77.8081 0.0188271 0)
(77.808 0.018989 0)
(77.8079 0.0191506 4.73506e-27)
(77.8078 0.0193118 4.78744e-27)
(77.8077 0.0194723 7.31472e-21)
(77.8075 0.0196319 -7.31475e-21)
(77.8074 0.0197904 -7.61304e-21)
(77.8073 0.0199474 1.53795e-20)
(77.8072 0.0201029 -7.7665e-21)
(77.8071 0.0202563 5.12642e-27)
(77.8069 0.0204076 0)
(77.8068 0.0205563 0)
(77.8067 0.0207022 -8.57533e-21)
(77.8065 0.0208449 1.73205e-20)
(77.8064 0.0209842 1.72293e-22)
(77.8063 0.0211196 -8.91749e-21)
(77.8061 0.0212509 1.1143e-26)
(77.806 0.0213776 0)
(77.8058 0.0214995 1.14138e-26)
(77.8057 0.0216161 9.81383e-21)
(77.8055 0.0217271 1.85398e-22)
(77.8054 0.0218321 -2.01857e-20)
(77.8052 0.0219308 1.01865e-20)
(77.8051 0.0220228 -1.05654e-20)
(77.8049 0.0221077 1.05654e-20)
(77.8048 0.0221851 0)
(77.8046 0.0222546 0)
(77.8045 0.022316 0)
(77.8043 0.0223689 -1.15306e-20)
(77.8042 0.0224128 -1.94406e-22)
(77.804 0.0224476 1.17251e-20)
(77.8039 0.0224729 0)
(77.8037 0.0224883 0)
(77.8035 0.0224937 1.24994e-20)
(77.8034 0.0224887 -1.24995e-20)
(77.8032 0.0224731 -2.76289e-26)
(77.8031 0.0224467 1.30692e-20)
(77.8029 0.0224094 1.8627e-22)
(77.8028 0.022361 -1.32556e-20)
(77.8027 0.0223013 -1.36211e-20)
(77.8025 0.0222303 -1.78564e-22)
(77.8024 0.0221479 1.37997e-20)
(77.8022 0.0220542 -1.41471e-20)
(77.8021 0.021949 1.41472e-20)
(77.802 0.0218326 1.44798e-20)
(77.8018 0.021705 -2.91199e-20)
(77.8017 0.0215663 -1.55605e-22)
(77.8016 0.0214167 1.47957e-20)
(77.8015 0.0212565 1.50925e-20)
(77.8013 0.021086 -1.50926e-20)
(77.8012 0.0209054 -6.20375e-26)
(77.8011 0.0207151 1.54986e-20)
(77.801 0.0205156 -1.54986e-20)
(77.8009 0.0203072 -1.5741e-20)
(77.8008 0.0200906 1.57409e-20)
(77.8008 0.0198661 0)
(77.8007 0.0196343 -1.2733e-25)
(77.8006 0.019396 1.61528e-20)
(77.8005 0.0191517 -3.23929e-20)
(77.8005 0.0189022 -8.07379e-23)
(77.8004 0.0186481 1.63209e-20)
(77.8003 0.0183902 -1.64631e-20)
(77.8003 0.0181293 -6.15468e-23)
(77.8002 0.0178662 -5.48755e-23)
(77.8002 0.0176018 3.3208e-20)
(77.8002 0.017337 -3.32991e-20)
(77.8001 0.0170726 1.66707e-20)
(77.8001 0.0168097 8.36848e-21)
(77.8001 0.0165491 -8.36837e-21)
(77.8001 0.016292 -8.3894e-21)
(77.8001 0.0160393 8.38917e-21)
(77.8 0.0157921 0)
(77.8 0.0155515 -8.39796e-21)
(77.8 0.0153186 2.46472e-24)
(77.8001 0.0150946 1.67858e-20)
(77.8001 0.0148808 -8.3903e-21)
(77.8001 0.0146784 0)
(77.8001 0.0144889 -4.17847e-21)
(77.8001 0.0143137 8.34837e-21)
(77.8001 0.0141543 -4.17016e-21)
(77.8002 0.0140127 0)
(77.8002 0.0138907 0)
(77.8003 0.0137912 2.51155e-25)
(77.8003 0.0137157 4.99986e-25)
(77.8004 0.0136713 0)
(77.8006 0.013646 0)
(77.8102 0.00163564 2.20337e-29)
(77.8102 0.00164084 -1.17059e-20)
(77.8102 0.00164651 1.17065e-20)
(77.8102 0.00165248 1.1699e-20)
(77.8102 0.0016586 -1.16996e-20)
(77.8102 0.00166483 -2.21186e-29)
(77.8102 0.0016712 -1.16889e-20)
(77.8102 0.00167773 1.16895e-20)
(77.8102 0.00168441 2.21571e-29)
(77.8102 0.00169124 -2.52026e-29)
(77.8102 0.00169823 6.95839e-29)
(77.8102 0.00170537 -4.43961e-29)
(77.8102 0.00171269 -1.16673e-20)
(77.8102 0.00172017 2.33314e-20)
(77.8102 0.00172782 -1.1664e-20)
(77.8102 0.00173565 -1.16559e-20)
(77.8102 0.00174366 1.16564e-20)
(77.8102 0.00175185 -6.99042e-29)
(77.8102 0.00176023 1.16443e-20)
(77.8102 0.0017688 -4.37955e-24)
(77.8102 0.00177757 -2.32772e-20)
(77.8102 0.00178653 1.16368e-20)
(77.8102 0.0017957 -4.4769e-29)
(77.8102 0.00180508 -1.16244e-20)
(77.8102 0.00181468 2.32453e-20)
(77.8102 0.00182449 -1.16208e-20)
(77.8103 0.00183453 0)
(77.8103 0.00184479 -5.10296e-29)
(77.8103 0.00185528 1.16045e-20)
(77.8103 0.00186602 -4.30289e-24)
(77.8103 0.00187699 -2.31974e-20)
(77.8103 0.00188822 1.15969e-20)
(77.8103 0.00189969 1.15888e-20)
(77.8103 0.00191143 -2.31742e-20)
(77.8103 0.00192342 1.15853e-20)
(77.8103 0.00193569 1.15776e-20)
(77.8103 0.00194823 -1.15779e-20)
(77.8103 0.00196105 1.15704e-20)
(77.8103 0.00197416 -1.15707e-20)
(77.8103 0.00198755 1.15636e-20)
(77.8103 0.00200125 -1.15638e-20)
(77.8103 0.00201524 -1.15572e-20)
(77.8103 0.00202955 3.27888e-24)
(77.8103 0.00204417 3.13669e-24)
(77.8103 0.00205911 1.15515e-20)
(77.8103 0.00207437 -1.15459e-20)
(77.8103 0.00208997 1.15462e-20)
(77.8103 0.00210591 0)
(77.8103 0.00212219 1.04806e-28)
(77.8103 0.00213882 -1.86184e-28)
(77.8103 0.00215582 0)
(77.8103 0.00217317 -1.05383e-28)
(77.8103 0.00219089 -1.05589e-28)
(77.8103 0.00220899 0)
(77.8103 0.00222747 0)
(77.8103 0.00224634 0)
(77.8103 0.0022656 0)
(77.8103 0.00228527 1.15325e-20)
(77.8103 0.00230533 -1.15327e-20)
(77.8103 0.00232581 0)
(77.8103 0.00234671 -3.83353e-28)
(77.8103 0.00236803 0)
(77.8103 0.00238978 0)
(77.8103 0.00241196 1.70397e-28)
(77.8103 0.00243458 0)
(77.8103 0.00245765 0)
(77.8103 0.00248116 -3.91452e-28)
(77.8103 0.00250512 1.15611e-20)
(77.8103 0.00252954 -1.15612e-20)
(77.8103 0.00255442 1.15733e-20)
(77.8103 0.00257976 -1.15734e-20)
(77.8103 0.00260557 0)
(77.8103 0.00263185 -8.02999e-28)
(77.8103 0.0026586 8.06787e-28)
(77.8103 0.00268582 1.16159e-20)
(77.8103 0.00271351 -1.1616e-20)
(77.8102 0.00274167 8.18996e-28)
(77.8102 0.00277031 -4.55624e-28)
(77.8102 0.00279942 -4.5764e-28)
(77.8102 0.00282899 3.72848e-28)
(77.8102 0.00285903 -1.16948e-20)
(77.8102 0.00288954 -1.64778e-23)
(77.8102 0.0029205 1.17114e-20)
(77.8102 0.00295191 -9.37604e-28)
(77.8101 0.00298376 0)
(77.8101 0.00301606 0)
(77.8101 0.00304877 0)
(77.8101 0.00308191 -9.58345e-28)
(77.8101 0.00311544 -9.63971e-28)
(77.8101 0.00314936 1.18865e-20)
(77.81 0.00318366 -1.18866e-20)
(77.81 0.00321831 1.80697e-27)
(77.81 0.0032533 9.88394e-28)
(77.81 0.0032886 0)
(77.8099 0.0033242 1.00183e-27)
(77.8099 0.00336005 -1.20766e-20)
(77.8099 0.00339615 -3.72579e-23)
(77.8099 0.00343245 1.2114e-20)
(77.8098 0.00346893 -2.06276e-27)
(77.8098 0.00350555 2.07872e-27)
(77.8098 0.00354227 0)
(77.8097 0.00357904 0)
(77.8097 0.00361583 6.12383e-27)
(77.8097 0.00365259 -6.18333e-27)
(77.8096 0.00368927 -2.1661e-27)
(77.8096 0.00372581 -4.12261e-27)
(77.8095 0.00376216 4.16799e-27)
(77.8095 0.00379825 -4.2147e-27)
(77.8095 0.00383403 2.24577e-27)
(77.8094 0.00386942 -1.27727e-20)
(77.8094 0.00390434 1.27728e-20)
(77.8093 0.00393874 0)
(77.8093 0.00397252 -8.93766e-27)
(77.8092 0.0040056 -4.71703e-27)
(77.8091 0.0040379 -4.76579e-27)
(77.8091 0.00406932 1.31986e-20)
(77.809 0.00409978 -1.31987e-20)
(77.809 0.00412916 -1.33589e-20)
(77.8089 0.00415737 1.33589e-20)
(77.8088 0.0041843 -1.35283e-20)
(77.8088 0.00420984 1.35283e-20)
(77.8087 0.00423388 -1.37066e-20)
(77.8086 0.0042563 1.37066e-20)
(77.8086 0.00427698 1.38936e-20)
(77.8085 0.0042958 -1.38937e-20)
(77.8084 0.00431264 -1.59757e-26)
(77.8083 0.00432737 1.41896e-20)
(77.8083 0.00433986 -1.41897e-20)
(77.8082 0.00434998 0)
(77.8081 0.0043576 1.45026e-20)
(77.808 0.0043626 -1.45027e-20)
(77.8079 0.00436483 2.301e-26)
(77.8079 0.00436418 -1.483e-20)
(77.8078 0.00436052 1.483e-20)
(77.8077 0.00435372 -1.19879e-26)
(77.8076 0.00434365 0)
(77.8075 0.00433021 -2.46384e-26)
(77.8074 0.00431328 0)
(77.8073 0.00429275 0)
(77.8073 0.00426852 -2.56431e-26)
(77.8072 0.0042405 3.88531e-26)
(77.8071 0.00420859 0)
(77.807 0.00417274 -1.5977e-20)
(77.8069 0.00413286 1.59771e-20)
(77.8068 0.00408891 1.62059e-20)
(77.8067 0.00404083 -1.6206e-20)
(77.8066 0.00398861 0)
(77.8066 0.00393222 0)
(77.8065 0.00387166 0)
(77.8064 0.00380695 0)
(77.8063 0.00373811 2.87312e-26)
(77.8062 0.00366518 -3.01615e-26)
(77.8062 0.00358824 2.93016e-26)
(77.8061 0.00350736 6.0386e-26)
(77.806 0.00342264 2.98539e-26)
(77.8059 0.0033342 6.0244e-26)
(77.8059 0.00324216 0)
(77.8058 0.00314669 0)
(77.8058 0.00304795 -1.26278e-25)
(77.8057 0.00294613 1.76638e-20)
(77.8056 0.00284144 -1.76639e-20)
(77.8056 0.00273409 0)
(77.8055 0.00262433 0)
(77.8055 0.00251242 1.30841e-25)
(77.8055 0.00239862 -6.72008e-26)
(77.8054 0.00228321 1.8018e-20)
(77.8054 0.0021665 -3.60783e-20)
(77.8053 0.00204878 1.80605e-20)
(77.8053 0.00193038 -1.81306e-20)
(77.8053 0.00181163 1.81307e-20)
(77.8053 0.00169285 1.32761e-25)
(77.8053 0.0015744 0)
(77.8053 0.00145662 1.33731e-25)
(77.8052 0.00133985 -1.82205e-20)
(77.8052 0.00122446 1.82208e-20)
(77.8052 0.00111081 -2.74089e-25)
(77.8052 0.000999244 1.82175e-20)
(77.8052 0.000890126 -9.59062e-24)
(77.8053 0.000783814 -1.82078e-20)
(77.8053 0.000680663 1.39389e-25)
(77.8053 0.000581027 0)
(77.8053 0.00048526 2.75159e-25)
(77.8053 0.000393712 -9.0488e-21)
(77.8053 0.000306733 9.0484e-21)
(77.8054 0.000224671 0)
(77.8054 0.000147875 -8.9935e-21)
(77.8054 7.66939e-05 8.99379e-21)
(77.8055 1.14809e-05 -8.94909e-21)
(77.8055 -4.7407e-05 8.94883e-21)
(77.8055 -9.96055e-05 -2.73458e-25)
(77.8056 -0.00014474 8.87036e-21)
(77.8056 -0.000182424 -8.87091e-21)
(77.8057 -0.000212252 0)
(77.8057 -0.0002338 -4.39038e-21)
(77.8058 -0.000246621 8.76505e-21)
(77.8058 -0.000250243 -4.37333e-21)
(77.8059 -0.000244239 4.33823e-21)
(77.8059 -0.000228116 -4.33823e-21)
(77.806 -0.000202248 2.14875e-21)
(77.806 -0.000166131 -1.16892e-23)
(77.8061 -0.000129344 -2.13785e-21)
(77.8062 -8.50875e-05 0)
(77.8181 0.00874411 -4.46805e-22)
(77.8181 0.00876182 -1.57358e-23)
(77.818 0.00878002 4.6259e-22)
(77.818 0.0087988 -2.70472e-29)
(77.818 0.008818 0)
(77.818 0.00883758 4.9922e-22)
(77.818 0.00885759 -1.00877e-21)
(77.818 0.00887807 5.09554e-22)
(77.818 0.00889903 -2.32688e-29)
(77.818 0.00892046 0)
(77.818 0.00894238 -5.52284e-22)
(77.818 0.00896479 5.52309e-22)
(77.818 0.00898772 4.66539e-29)
(77.818 0.00901118 -4.66852e-29)
(77.818 0.00903516 -5.99523e-22)
(77.8179 0.0090597 5.99548e-22)
(77.8179 0.00908479 -4.67851e-29)
(77.8179 0.00911045 4.68205e-29)
(77.8179 0.0091367 4.68571e-29)
(77.8179 0.00916354 0)
(77.8179 0.009191 0)
(77.8179 0.00921907 -4.69739e-29)
(77.8179 0.00924779 4.70154e-29)
(77.8179 0.00927715 0)
(77.8179 0.00930718 0)
(77.8178 0.00933789 -5.58173e-29)
(77.8178 0.0093693 5.59303e-29)
(77.8178 0.00940142 0)
(77.8178 0.00943426 9.45907e-29)
(77.8178 0.00946784 -8.24646e-22)
(77.8178 0.00950218 8.24671e-22)
(77.8178 0.0095373 -1.81999e-29)
(77.8178 0.0095732 0)
(77.8177 0.00960991 0)
(77.8177 0.00964745 9.52753e-29)
(77.8177 0.00968583 -1.1429e-28)
(77.8177 0.00972506 -1.14611e-28)
(77.8177 0.00976518 9.84149e-22)
(77.8177 0.00980619 -9.84174e-22)
(77.8176 0.00984812 -1.15644e-28)
(77.8176 0.00989098 1.05286e-21)
(77.8176 0.00993479 2.40846e-23)
(77.8176 0.00997958 -2.17871e-21)
(77.8176 0.0100254 2.22884e-21)
(77.8176 0.0100721 -1.12713e-21)
(77.8175 0.01012 0)
(77.8175 0.0101688 -1.94311e-28)
(77.8175 0.0102188 0)
(77.8175 0.0102698 -1.26445e-21)
(77.8175 0.010322 1.26448e-21)
(77.8174 0.0103753 0)
(77.8174 0.0104298 -1.35594e-21)
(77.8174 0.0104854 1.35596e-21)
(77.8174 0.0105422 0)
(77.8173 0.0106003 2.45761e-28)
(77.8173 0.0106596 0)
(77.8173 0.0107202 0)
(77.8173 0.0107821 0)
(77.8172 0.0108453 2.51162e-28)
(77.8172 0.0109099 1.63881e-21)
(77.8172 0.0109758 -1.63884e-21)
(77.8172 0.0110431 -5.11537e-28)
(77.8171 0.0111117 0)
(77.8171 0.0111819 -4.06618e-28)
(77.8171 0.0112535 -5.21828e-28)
(77.817 0.0113265 0)
(77.817 0.0114011 1.94181e-21)
(77.817 0.0114771 -3.93187e-21)
(77.8169 0.0115547 1.99006e-21)
(77.8169 0.0116339 8.32189e-28)
(77.8168 0.0117147 0)
(77.8168 0.011797 5.50757e-28)
(77.8168 0.011881 2.87778e-28)
(77.8167 0.0119666 -8.47287e-28)
(77.8167 0.0120539 2.3677e-21)
(77.8166 0.0121429 -2.36773e-21)
(77.8166 0.0122335 -2.48983e-21)
(77.8166 0.0123259 2.48986e-21)
(77.8165 0.01242 1.17626e-27)
(77.8165 0.0125158 -2.68635e-21)
(77.8164 0.0126134 2.68638e-21)
(77.8164 0.0127127 0)
(77.8163 0.0128138 8.90209e-28)
(77.8163 0.0129167 0)
(77.8162 0.0130213 0)
(77.8161 0.0131277 -3.13272e-21)
(77.8161 0.0132359 3.13274e-21)
(77.816 0.0133459 0)
(77.816 0.0134577 -3.38574e-21)
(77.8159 0.0135712 3.38577e-21)
(77.8158 0.0136865 0)
(77.8158 0.0138035 -3.66092e-21)
(77.8157 0.0139223 3.66094e-21)
(77.8156 0.0140427 0)
(77.8156 0.0141649 0)
(77.8155 0.0142887 4.06538e-21)
(77.8154 0.0144141 -4.06541e-21)
(77.8153 0.0145412 -9.89837e-28)
(77.8152 0.0146698 -4.39927e-21)
(77.8152 0.0147998 8.91605e-21)
(77.8151 0.0149314 -4.51678e-21)
(77.815 0.0150643 0)
(77.8149 0.0151986 -4.1948e-27)
(77.8148 0.0153341 9.2388e-28)
(77.8147 0.0154708 0)
(77.8146 0.0156086 4.32962e-27)
(77.8145 0.0157475 -4.37728e-27)
(77.8144 0.0158873 4.42634e-27)
(77.8143 0.0160279 0)
(77.8142 0.0161692 0)
(77.8141 0.0163111 0)
(77.814 0.0164535 0)
(77.8138 0.0165963 1.71765e-26)
(77.8137 0.0167392 -6.52497e-21)
(77.8136 0.0168822 6.525e-21)
(77.8135 0.0170251 -6.87168e-21)
(77.8133 0.0171678 6.8717e-21)
(77.8132 0.0173099 -7.23401e-21)
(77.8131 0.0174515 7.23405e-21)
(77.8129 0.0175922 7.61196e-21)
(77.8128 0.0177319 1.9471e-22)
(77.8127 0.0178703 -7.80675e-21)
(77.8125 0.0180073 -1.88815e-26)
(77.8124 0.0181426 8.41368e-21)
(77.8122 0.018276 2.0964e-22)
(77.8121 0.0184073 -8.62334e-21)
(77.8119 0.0185361 9.05327e-21)
(77.8118 0.0186622 -9.05326e-21)
(77.8116 0.0187854 2.12126e-26)
(77.8114 0.0189054 0)
(77.8113 0.0190219 -9.95201e-21)
(77.8111 0.0191347 9.95205e-21)
(77.8109 0.0192434 -1.04185e-20)
(77.8108 0.0193477 1.04186e-20)
(77.8106 0.0194474 1.08945e-20)
(77.8104 0.0195423 -2.203e-20)
(77.8102 0.0196318 1.11355e-20)
(77.8101 0.0197159 0)
(77.8099 0.0197942 1.18672e-20)
(77.8097 0.0198665 -1.18672e-20)
(77.8095 0.0199323 -1.23596e-20)
(77.8094 0.0199915 -2.46673e-22)
(77.8092 0.0200439 1.26063e-20)
(77.809 0.0200891 -1.12169e-25)
(77.8088 0.0201268 1.04393e-27)
(77.8086 0.020157 -5.72286e-26)
(77.8085 0.0201792 0)
(77.8083 0.0201935 5.89518e-26)
(77.8081 0.0201994 0)
(77.8079 0.0201969 0)
(77.8078 0.0201859 0)
(77.8076 0.0201661 1.86663e-25)
(77.8074 0.0201375 -1.26083e-25)
(77.8073 0.0201001 -1.54513e-20)
(77.8071 0.0200536 3.1118e-20)
(77.807 0.0199981 -1.56671e-20)
(77.8068 0.0199336 0)
(77.8067 0.0198602 0)
(77.8065 0.0197777 1.64775e-20)
(77.8064 0.0196864 -1.64774e-20)
(77.8063 0.0195863 0)
(77.8061 0.0194776 -1.38248e-25)
(77.806 0.0193604 0)
(77.8059 0.0192349 -1.37418e-25)
(77.8058 0.0191014 1.38239e-25)
(77.8057 0.01896 1.76417e-20)
(77.8056 0.0188111 -1.76414e-20)
(77.8055 0.018655 0)
(77.8054 0.018492 1.80254e-20)
(77.8053 0.0183225 -1.80258e-20)
(77.8052 0.0181469 2.915e-25)
(77.8052 0.0179655 -1.8335e-20)
(77.8051 0.0177789 1.83354e-20)
(77.805 0.0175875 0)
(77.805 0.0173918 -9.28568e-21)
(77.8049 0.0171922 -3.05933e-23)
(77.8049 0.0169894 9.31632e-21)
(77.8049 0.016784 9.36541e-21)
(77.8048 0.0165763 -9.36572e-21)
(77.8048 0.0163672 9.39932e-21)
(77.8048 0.0161571 1.17778e-23)
(77.8048 0.0159468 -9.41114e-21)
(77.8048 0.0157369 -9.42154e-21)
(77.8048 0.015528 6.39768e-25)
(77.8048 0.0153209 9.42301e-21)
(77.8048 0.0151162 0)
(77.8048 0.0149148 9.40201e-21)
(77.8048 0.0147173 -9.4032e-21)
(77.8048 0.0145246 -9.373e-21)
(77.8048 0.0143375 9.37359e-21)
(77.8049 0.0141568 5.69916e-25)
(77.8049 0.0139834 0)
(77.8049 0.0138183 0)
(77.805 0.0136622 0)
(77.805 0.0135164 -5.62554e-25)
(77.8051 0.0133816 -5.60356e-25)
(77.8051 0.0132591 0)
(77.8052 0.0131494 2.27237e-21)
(77.8053 0.0130542 -1.22018e-23)
(77.8054 0.0129719 -2.25905e-21)
(77.8054 0.0129119 0)
(77.8055 0.0128545 0)
(77.8188 0.0031089 0)
(77.8188 0.00311953 -3.48085e-21)
(77.8188 0.00313073 3.48105e-21)
(77.8188 0.00314237 4.48221e-29)
(77.8188 0.00315429 -3.47756e-21)
(77.8188 0.00316645 3.47775e-21)
(77.8188 0.00317888 3.47596e-21)
(77.8188 0.0031916 -3.47614e-21)
(77.8188 0.00320462 -3.47415e-21)
(77.8188 0.00321794 6.94758e-21)
(77.8188 0.00323156 -3.47343e-21)
(77.8188 0.00324549 -2.86608e-29)
(77.8188 0.00325974 0)
(77.8188 0.00327431 -3.35445e-29)
(77.8188 0.00328922 -3.4691e-21)
(77.8188 0.00330447 3.46924e-21)
(77.8188 0.00332006 3.38146e-29)
(77.8189 0.00333601 -3.39111e-29)
(77.8189 0.00335233 3.40109e-29)
(77.8189 0.00336901 -3.46552e-21)
(77.8189 0.00338607 7.42367e-25)
(77.8189 0.00340352 3.46504e-21)
(77.8189 0.00342137 0)
(77.8189 0.00343962 -3.45664e-29)
(77.8189 0.00345828 0)
(77.8189 0.00347736 1.28259e-28)
(77.8189 0.00349687 3.46228e-21)
(77.8189 0.00351682 -3.46239e-21)
(77.8189 0.00353722 7.04597e-29)
(77.8189 0.00355808 -3.46183e-21)
(77.8189 0.0035794 3.46194e-21)
(77.8189 0.0036012 1.90182e-28)
(77.8189 0.00362348 6.9243e-21)
(77.8189 0.00364626 4.1674e-25)
(77.8189 0.00366955 -6.9251e-21)
(77.8189 0.00369335 1.20037e-28)
(77.8189 0.00371767 6.92812e-21)
(77.8189 0.00374254 -6.9283e-21)
(77.8189 0.00376795 -7.39569e-29)
(77.8189 0.00379391 1.95841e-28)
(77.8189 0.00382045 6.93621e-21)
(77.8188 0.00384756 -1.38754e-20)
(77.8188 0.00387526 6.93918e-21)
(77.8188 0.00390356 -6.94573e-21)
(77.8188 0.00393247 -3.78876e-24)
(77.8188 0.00396201 6.94982e-21)
(77.8188 0.00399217 -6.95882e-21)
(77.8188 0.00402298 1.39231e-20)
(77.8188 0.00405444 -6.96422e-21)
(77.8188 0.00408657 0)
(77.8188 0.00411938 6.98293e-21)
(77.8188 0.00415287 -6.98305e-21)
(77.8188 0.00418706 -6.9983e-21)
(77.8188 0.00422196 -8.49782e-24)
(77.8188 0.00425758 7.00704e-21)
(77.8188 0.00429393 0)
(77.8188 0.00433103 3.38711e-28)
(77.8188 0.00436887 0)
(77.8188 0.00440747 -2.63792e-28)
(77.8188 0.00444685 2.65345e-28)
(77.8188 0.004487 0)
(77.8187 0.00452795 -7.10275e-21)
(77.8187 0.00456969 7.10285e-21)
(77.8187 0.00461224 3.6497e-28)
(77.8187 0.00465561 5.48067e-28)
(77.8187 0.0046998 7.17262e-21)
(77.8187 0.00474481 -1.43656e-20)
(77.8187 0.00479067 1.44073e-20)
(77.8187 0.00483737 -7.21439e-21)
(77.8186 0.00488491 7.87392e-28)
(77.8186 0.00493331 -7.98287e-28)
(77.8186 0.00498256 7.3132e-21)
(77.8186 0.00503266 -7.31328e-21)
(77.8186 0.00508363 8.33521e-28)
(77.8185 0.00513546 5.94057e-28)
(77.8185 0.00518815 1.1993e-27)
(77.8185 0.00524169 -7.47077e-21)
(77.8185 0.00529609 7.47085e-21)
(77.8184 0.00535134 -7.546e-21)
(77.8184 0.00540743 7.54607e-21)
(77.8184 0.00546436 7.62903e-21)
(77.8184 0.00552212 -1.53028e-20)
(77.8183 0.00558069 7.67373e-21)
(77.8183 0.00564006 -7.76951e-21)
(77.8183 0.00570023 1.55905e-20)
(77.8182 0.00576116 -7.82097e-21)
(77.8182 0.00582284 -7.93099e-21)
(77.8181 0.00588525 7.93106e-21)
(77.8181 0.00594835 -1.38799e-27)
(77.8181 0.00601214 0)
(77.818 0.00607656 -2.25141e-27)
(77.818 0.0061416 -2.29801e-27)
(77.8179 0.0062072 8.3259e-21)
(77.8179 0.00627334 7.60866e-23)
(77.8178 0.00633996 7.92682e-23)
(77.8178 0.00640702 -1.70454e-20)
(77.8177 0.00647447 1.7214e-20)
(77.8176 0.00654225 -1.73893e-20)
(77.8176 0.00661029 8.73938e-21)
(77.8175 0.00667853 -3.25838e-27)
(77.8174 0.00674691 3.31148e-27)
(77.8174 0.00681535 -5.72125e-27)
(77.8173 0.00688377 -9.24093e-21)
(77.8172 0.00695207 -1.11736e-22)
(77.8171 0.00702018 9.35278e-21)
(77.8171 0.007088 -9.5884e-21)
(77.817 0.00715542 1.93009e-20)
(77.8169 0.00722235 -1.95531e-20)
(77.8168 0.00728865 9.84067e-21)
(77.8167 0.00735422 0)
(77.8166 0.00741894 0)
(77.8165 0.00748266 -7.25435e-27)
(77.8164 0.00754526 -8.18163e-27)
(77.8163 0.00760658 8.33681e-27)
(77.8162 0.00766649 -1.08591e-20)
(77.8161 0.00772482 1.08592e-20)
(77.816 0.00778142 2.52108e-26)
(77.8159 0.00783611 7.78892e-27)
(77.8157 0.00788873 0)
(77.8156 0.0079391 -1.87063e-26)
(77.8155 0.00798704 -1.19035e-20)
(77.8154 0.00803235 1.19036e-20)
(77.8152 0.00807485 1.22857e-20)
(77.8151 0.00811435 -1.22858e-20)
(77.815 0.00815064 0)
(77.8148 0.00818352 -1.28886e-20)
(77.8147 0.00821279 2.59855e-20)
(77.8145 0.00823825 -2.64056e-20)
(77.8144 0.00825969 -2.14912e-22)
(77.8142 0.00827691 1.35236e-20)
(77.8141 0.0082897 2.24432e-26)
(77.8139 0.00829785 -4.66125e-26)
(77.8138 0.00830118 0)
(77.8136 0.00829948 0)
(77.8135 0.00829256 0)
(77.8133 0.00828025 -5.07853e-26)
(77.8132 0.00826236 5.17321e-26)
(77.813 0.00823873 0)
(77.8128 0.0082092 -5.35941e-26)
(77.8127 0.00817362 -1.09557e-25)
(77.8125 0.00813186 -1.62607e-20)
(77.8124 0.0080838 -2.3132e-22)
(77.8122 0.00802933 1.64922e-20)
(77.812 0.00796837 -6.02182e-26)
(77.8119 0.00790085 -6.13643e-26)
(77.8117 0.00782671 6.01055e-26)
(77.8116 0.00774591 0)
(77.8114 0.00765845 -1.78388e-20)
(77.8113 0.00756434 3.58908e-20)
(77.8111 0.00746362 -1.80519e-20)
(77.811 0.00735632 -1.84649e-20)
(77.8108 0.00724254 1.84649e-20)
(77.8107 0.00712238 1.32421e-25)
(77.8106 0.00699597 1.34035e-25)
(77.8105 0.00686346 2.75065e-25)
(77.8103 0.00672503 1.93981e-20)
(77.8102 0.00658089 -1.93982e-20)
(77.8101 0.00643126 0)
(77.81 0.0062764 0)
(77.8099 0.00611658 2.00165e-20)
(77.8098 0.0059521 -2.00169e-20)
(77.8097 0.00578329 1.45197e-25)
(77.8096 0.00561048 -2.03939e-20)
(77.8095 0.00543404 2.03936e-20)
(77.8095 0.00525435 0)
(77.8094 0.00507181 2.06892e-20)
(77.8094 0.00488682 -2.06895e-20)
(77.8093 0.00469983 0)
(77.8093 0.00451127 -1.04508e-20)
(77.8092 0.00432158 1.04502e-20)
(77.8092 0.00413125 -1.04978e-20)
(77.8092 0.00394073 1.04975e-20)
(77.8091 0.0037505 0)
(77.8091 0.00356104 6.3299e-25)
(77.8091 0.00337284 3.09619e-25)
(77.8091 0.00318639 -1.05369e-20)
(77.8091 0.00300218 1.0537e-20)
(77.8091 0.00282069 0)
(77.8091 0.00264242 6.34668e-25)
(77.8092 0.00246786 0)
(77.8092 0.00229749 -1.04731e-20)
(77.8092 0.00213181 1.04725e-20)
(77.8092 0.00197129 -6.20818e-25)
(77.8093 0.00181643 -6.19971e-25)
(77.8093 0.0016677 -6.18915e-25)
(77.8094 0.0015256 0)
(77.8094 0.00139061 -1.02796e-20)
(77.8095 0.00126321 1.02808e-20)
(77.8095 0.00114392 0)
(77.8096 0.00103322 0)
(77.8097 0.000931628 5.04732e-21)
(77.8097 0.000839669 -5.04732e-21)
(77.8098 0.000757872 0)
(77.8099 0.000686778 0)
(77.81 0.000626931 4.93571e-21)
(77.8101 0.000578876 -4.93332e-21)
(77.8101 0.000543111 -2.43524e-21)
(77.8102 0.000520169 2.43407e-21)
(77.8103 0.000510128 0)
(77.8104 0.000514111 0)
(77.8105 0.000527319 2.30297e-24)
(77.8107 0.000557685 0)
(77.8252 0.00788369 -1.23858e-21)
(77.8252 0.00790455 1.71666e-29)
(77.8252 0.00792601 6.02257e-30)
(77.8252 0.00794813 1.21289e-21)
(77.8252 0.00797075 -2.42097e-21)
(77.8252 0.00799383 2.41058e-21)
(77.8252 0.00801741 -1.20256e-21)
(77.8251 0.00804154 1.16239e-29)
(77.8251 0.00806622 -1.18547e-21)
(77.8251 0.00809146 2.36504e-21)
(77.8251 0.00811726 -1.17957e-21)
(77.8251 0.00814365 -1.11977e-29)
(77.8251 0.00817063 0)
(77.8251 0.00819822 -1.15396e-21)
(77.8251 0.00822642 1.15401e-21)
(77.8251 0.00825527 -1.07088e-29)
(77.8251 0.00828475 -3.5512e-29)
(77.8251 0.0083149 3.56134e-29)
(77.825 0.00834573 -2.54221e-29)
(77.825 0.00837725 1.10999e-21)
(77.825 0.00840946 -1.11004e-21)
(77.825 0.0084424 0)
(77.825 0.00847608 -1.08513e-21)
(77.825 0.0085105 1.08517e-21)
(77.825 0.00854568 -1.06737e-21)
(77.825 0.00858165 1.0674e-21)
(77.825 0.00861842 1.79308e-29)
(77.8249 0.008656 -7.3698e-29)
(77.8249 0.0086944 -7.3997e-29)
(77.8249 0.00873366 1.01836e-21)
(77.8249 0.00877378 -1.01839e-21)
(77.8249 0.00881478 -7.4962e-29)
(77.8249 0.00885668 -9.85462e-22)
(77.8249 0.0088995 1.95935e-21)
(77.8248 0.00894325 -9.73886e-22)
(77.8248 0.00898796 0)
(77.8248 0.00903364 -9.36998e-22)
(77.8248 0.00908031 1.30326e-23)
(77.8248 0.00912798 1.83461e-21)
(77.8248 0.00917669 -1.38031e-23)
(77.8247 0.00922645 -8.96842e-22)
(77.8247 0.00927727 -1.37281e-28)
(77.8247 0.00932918 8.52998e-22)
(77.8247 0.0093822 -1.69054e-21)
(77.8247 0.00943635 8.37537e-22)
(77.8246 0.00949165 8.05166e-22)
(77.8246 0.00954811 -1.59345e-21)
(77.8246 0.00960577 1.55913e-21)
(77.8246 0.00966463 -7.7087e-22)
(77.8245 0.00972472 0)
(77.8245 0.00978607 1.68615e-28)
(77.8245 0.00984868 0)
(77.8245 0.00991259 1.71468e-28)
(77.8244 0.00997781 0)
(77.8244 0.0100444 0)
(77.8244 0.0101123 0)
(77.8244 0.0101815 -3.55719e-28)
(77.8243 0.0102522 -5.64993e-22)
(77.8243 0.0103243 5.65002e-22)
(77.8243 0.0103978 0)
(77.8242 0.0104728 -2.87494e-29)
(77.8242 0.0105493 -3.39762e-29)
(77.8242 0.0106272 4.36257e-22)
(77.8241 0.0107066 -8.44328e-22)
(77.8241 0.0107876 4.0807e-22)
(77.824 0.0108701 -3.92609e-28)
(77.824 0.0109542 2.71199e-28)
(77.824 0.0110399 -4.02647e-28)
(77.8239 0.0111271 -4.07956e-28)
(77.8239 0.011216 2.19402e-22)
(77.8238 0.0113065 -4.03823e-22)
(77.8238 0.0113986 3.60892e-23)
(77.8237 0.0114923 1.48332e-22)
(77.8237 0.0115877 -7.27105e-23)
(77.8236 0.0116847 7.27104e-23)
(77.8236 0.0117835 7.75596e-24)
(77.8235 0.0118839 -7.75723e-24)
(77.8235 0.0119859 6.32654e-28)
(77.8234 0.0120897 -1.38226e-22)
(77.8234 0.0121951 1.38229e-22)
(77.8233 0.0123022 2.32206e-22)
(77.8232 0.0124109 -5.13633e-22)
(77.8232 0.0125214 2.81427e-22)
(77.8231 0.0126334 -3.84548e-22)
(77.823 0.0127472 3.84552e-22)
(77.823 0.0128625 0)
(77.8229 0.0129795 0)
(77.8228 0.013098 -1.22172e-21)
(77.8227 0.0132181 1.22173e-21)
(77.8226 0.0133397 0)
(77.8226 0.0134628 2.36449e-27)
(77.8225 0.0135874 3.69817e-27)
(77.8224 0.0137134 -1.8708e-21)
(77.8223 0.0138408 1.87081e-21)
(77.8222 0.0139695 2.95919e-27)
(77.8221 0.0140995 3.09784e-27)
(77.822 0.0142307 -2.68467e-27)
(77.8219 0.014363 6.44375e-28)
(77.8218 0.0144964 -2.7886e-21)
(77.8217 0.0146308 -1.69087e-22)
(77.8216 0.0147661 2.95772e-21)
(77.8215 0.0149022 6.00863e-27)
(77.8213 0.015039 4.20163e-27)
(77.8212 0.0151765 -3.68372e-21)
(77.8211 0.0153145 3.68373e-21)
(77.821 0.0154528 -6.59707e-27)
(77.8208 0.0155914 6.75551e-27)
(77.8207 0.0157302 1.77376e-27)
(77.8206 0.0158689 -7.08646e-27)
(77.8204 0.0160075 -4.93028e-21)
(77.8203 0.0161458 4.93029e-21)
(77.8201 0.0162837 7.61878e-27)
(77.82 0.0164208 -5.62789e-21)
(77.8198 0.0165572 5.62792e-21)
(77.8196 0.0166925 -2.97898e-26)
(77.8195 0.0168267 0)
(77.8193 0.0169594 -6.63658e-21)
(77.8191 0.0170905 -2.66041e-22)
(77.819 0.0172198 1.40769e-20)
(77.8188 0.0173471 -7.17422e-21)
(77.8186 0.017472 0)
(77.8184 0.0175944 0)
(77.8182 0.0177141 0)
(77.818 0.0178307 2.03679e-26)
(77.8178 0.0179441 -3.75746e-26)
(77.8176 0.018054 2.13512e-26)
(77.8174 0.0181601 2.18549e-26)
(77.8172 0.0182621 4.47321e-26)
(77.817 0.0183598 0)
(77.8168 0.0184529 0)
(77.8166 0.0185412 -4.78811e-26)
(77.8164 0.0186244 2.74223e-27)
(77.8162 0.0187023 0)
(77.8159 0.0187745 4.87886e-26)
(77.8157 0.0188409 1.21406e-20)
(77.8155 0.0189011 -2.46178e-20)
(77.8153 0.0189549 1.24773e-20)
(77.8151 0.0190022 0)
(77.8148 0.0190427 0)
(77.8146 0.0190761 5.77932e-26)
(77.8144 0.0191024 -1.15829e-25)
(77.8142 0.0191212 -1.45e-20)
(77.814 0.0191325 1.45e-20)
(77.8137 0.019136 9.16001e-28)
(77.8135 0.0191317 1.2661e-25)
(77.8133 0.0191194 1.28515e-25)
(77.8131 0.0190991 -1.61338e-20)
(77.8129 0.0190707 1.61337e-20)
(77.8127 0.0190341 1.67573e-20)
(77.8125 0.0189892 3.02851e-22)