/*--------------------------------*- C++ -*----------------------------------*\
  =========                 |
  \\      /  F ield         | OpenFOAM: The Open Source CFD Toolbox
   \\    /   O peration     | Website:  https://openfoam.org
    \\  /    A nd           | Version:  7
     \\/     M anipulation  |
\*---------------------------------------------------------------------------*/
FoamFile
{
    version     2.0;
    format      ascii;
    class       volVectorField;
    location    "1";
    object      wallShearStress;
}
// * * * * * * * * * * * * * * * * * * * * * * * * * * * * * * * * * * * * * //

dimensions      [0 2 -2 0 0 0 0];

internalField   uniform (0 0 0);

boundaryField
{
    frontAndBack
    {
        type            empty;
    }
    farfield
    {
        type            calculated;
        value           uniform (0 0 0);
    }
    airfoil
    {
        type            calculated;
        value           nonuniform List<vector> 
341
(
(-18.578 -0.458853 4.16418e-23)
(-21.2042 -0.533653 1.16798e-22)
(-20.6914 -0.35413 3.2899e-18)
(-19.6031 -0.201742 -5.46391e-24)
(-19.2208 -0.144745 -6.56988e-22)
(-19.2433 -0.0915477 4.12303e-22)
(-19.1944 -0.0328535 -2.05502e-19)
(-19.0451 0.0372327 -8.38515e-19)
(-18.7669 0.103919 -8.70327e-19)
(-18.5404 0.159824 8.55374e-19)
(-18.37 0.212695 1.64962e-21)
(-18.1927 0.261299 1.66611e-18)
(-18.0373 0.307302 -3.29126e-18)
(-17.8944 0.35295 8.09115e-22)
(-17.7184 0.396183 -1.059e-23)
(-17.5347 0.435677 3.24916e-18)
(-17.3805 0.473452 -3.20738e-18)
(-17.2366 0.508521 -7.79365e-22)
(-17.1035 0.54209 3.24734e-35)
(-16.9533 0.575987 -7.65512e-22)
(-16.7943 0.606996 -3.11779e-18)
(-16.6446 0.636023 6.16246e-18)
(-16.5022 0.662779 1.10203e-38)
(-16.3773 0.688344 6.02248e-18)
(-16.2621 0.714504 -7.40983e-22)
(-16.1257 0.739671 -1.50181e-34)
(-15.9785 0.761782 5.89561e-18)
(-15.8459 0.783051 6.11257e-37)
(-15.7243 0.803001 1.46258e-37)
(-15.6209 0.822431 8.23994e-38)
(-15.5149 0.842291 1.37703e-21)
(-15.3889 0.860739 5.6182e-18)
(-15.26 0.877312 5.55242e-18)
(-15.1436 0.893303 -5.49086e-18)
(-15.0366 0.908366 7.08852e-35)
(-14.9393 0.922584 -5.37678e-18)
(-14.8476 0.937665 1.31655e-36)
(-14.7386 0.952143 -1.2755e-21)
(-14.6227 0.964539 5.20956e-18)
(-14.5146 0.97642 -1.12452e-21)
(-14.4122 0.987318 -3.29138e-37)
(-14.3187 0.99768 5.04131e-18)
(-14.2371 1.00864 -1.22429e-21)
(-14.1437 1.02011 -4.90819e-18)
(-14.0389 1.02946 -4.85218e-18)
(-13.9391 1.03829 -4.79697e-18)
(-13.8466 1.04662 -4.5581e-34)
(-13.7624 1.05466 4.69115e-18)
(-13.6888 1.06269 4.6378e-18)
(-13.6163 1.07184 -5.64237e-37)
(-13.5296 1.07989 6.58277e-37)
(-13.4382 1.08655 -4.43257e-18)
(-13.3519 1.09299 1.05907e-21)
(-13.2714 1.09917 -1.06724e-21)
(-13.1951 1.1049 4.28006e-18)
(-13.1283 1.11126 8.39544e-18)
(-13.0525 1.11813 1.12847e-36)
(-12.9637 1.12301 -1.41059e-37)
(-12.8782 1.12761 4.00018e-18)
(-12.7981 1.132 7.89535e-18)
(-12.7233 1.13612 -3.89728e-18)
(-12.6549 1.14015 1.87857e-21)
(-12.5929 1.14499 -3.73207e-18)
(-12.5198 1.14981 -1.59034e-22)
(-12.4379 1.15298 -1.12537e-35)
(-12.3603 1.15617 2.81009e-38)
(-12.2872 1.1592 -1.78675e-36)
(-12.2178 1.16198 -6.8762e-18)
(-12.1553 1.16496 1.00362e-21)
(-12.0944 1.16868 -7.8031e-22)
(-12.022 1.17185 3.17351e-18)
(-11.9452 1.1739 3.11527e-18)
(-11.8731 1.17602 -9.40395e-37)
(-11.8059 1.1781 1.32014e-39)
(-11.7428 1.18004 -7.07391e-22)
(-11.6883 1.18248 -5.75177e-18)
(-11.6334 1.18581 -2.71644e-18)
(-11.5694 1.18843 2.65491e-18)
(-11.5042 1.19038 1.27313e-34)
(-11.4401 1.19206 2.52713e-18)
(-11.3758 1.19323 2.46253e-18)
(-11.3119 1.19392 -2.05712e-38)
(-11.2528 1.19488 2.30002e-18)
(-11.1877 1.19635 2.15876e-18)
(-11.1108 1.19636 -1.18016e-23)
(-11.0333 1.19592 -2.01625e-18)
(-10.9588 1.19541 -1.94237e-18)
(-10.8871 1.19474 -1.86736e-18)
(-10.8187 1.19402 -2.24936e-22)
(-10.7541 1.19388 1.96061e-22)
(-10.68 1.19382 1.54078e-18)
(-10.5967 1.1922 -1.4566e-18)
(-10.5159 1.19045 -1.38434e-24)
(-10.4387 1.1886 -1.49752e-22)
(-10.3649 1.18661 1.19075e-18)
(-10.2978 1.18498 -1.09335e-18)
(-10.2282 1.18411 1.88079e-37)
(-10.1445 1.18203 -7.26056e-23)
(-10.059 1.17914 -9.66123e-23)
(-9.97795 1.17628 -6.2608e-19)
(-9.90068 1.17327 -7.02999e-23)
(-9.82937 1.17044 2.35099e-38)
(-9.76245 1.16852 -5.32528e-19)
(-9.6842 1.16645 3.46812e-23)
(-9.59698 1.16273 1.66268e-20)
(-9.51089 1.15872 -1.14876e-19)
(-9.42511 1.15419 2.51598e-19)
(-9.34057 1.14927 -3.96724e-23)
(-9.25642 1.14478 7.05297e-38)
(-9.1559 1.13964 6.43257e-19)
(-9.04313 1.13223 -8.03136e-19)
(-8.93537 1.12483 9.70636e-19)
(-8.83018 1.11695 1.14564e-18)
(-8.73352 1.10947 -1.32503e-18)
(-8.6319 1.10267 -4.70198e-38)
(-8.50774 1.09369 -1.56809e-18)
(-8.37911 1.08317 1.77864e-18)
(-8.25712 1.07267 -2.00079e-18)
(-8.14146 1.06205 -2.2354e-18)
(-8.028 1.05228 4.49652e-18)
(-7.8906 1.0409 -4.88633e-18)
(-7.74204 1.02704 2.71834e-18)
(-7.59975 1.01306 -1.77922e-22)
(-7.46783 0.999458 -3.28652e-18)
(-7.32587 0.9861 9.40395e-38)
(-7.15336 0.969177 -2.20894e-22)
(-6.97887 0.950565 2.31312e-22)
(-6.81873 0.932524 -2.16077e-18)
(-6.65455 0.915044 8.06195e-18)
(-6.44306 0.892177 -2.66313e-22)
(-6.24113 0.868556 -1.44821e-34)
(-6.02453 0.841408 -1.01937e-17)
(-5.84781 0.822349 1.61903e-22)
(-5.47052 0.77324 3.0091e-18)
(-5.42248 0.769953 1.71658e-22)
(-4.63163 0.662882 -6.45792e-18)
(-5.19065 0.742505 0)
(-1.97057 0.76134 -3.64291e-21)
(-8.21698 -28.1537 1.15995e-16)
(-31.8142 -37.3603 -9.13955e-17)
(-36.8179 -27.058 3.88593e-18)
(-32.6194 -17.8105 -4.69101e-17)
(-28.4393 -12.5445 -6.00528e-21)
(-26.1719 -9.75488 -3.67342e-40)
(-25.0907 -8.0904 3.55576e-22)
(-24.826 -7.04693 -1.11947e-21)
(-25.0561 -6.34525 5.07235e-17)
(-25.3407 -5.7674 1.58793e-21)
(-25.5124 -5.25941 -8.27072e-22)
(-25.7719 -4.83053 -2.66673e-17)
(-25.9157 -4.43068 7.62513e-22)
(-26.0158 -4.07667 -2.81524e-17)
(-25.9861 -3.72778 8.47032e-22)
(-25.8192 -3.39724 -8.98256e-22)
(-25.5362 -3.09006 5.76241e-17)
(-25.1365 -2.78867 2.82657e-17)
(-24.7241 -2.51482 -2.89642e-35)
(-24.2899 -2.2675 8.35178e-22)
(-23.8766 -2.03962 -1.43961e-17)
(-23.468 -1.82933 -1.67466e-33)
(-23.0831 -1.63903 1.48493e-17)
(-22.7194 -1.46614 -8.91681e-22)
(-22.3867 -1.30635 -1.43891e-17)
(-22.0269 -1.13762 -4.37808e-22)
(-21.3834 -0.948705 -1.33158e-17)
(-21.0317 -0.844685 -6.63529e-18)
(-21.1355 -0.80091 2.32834e-22)
(-21.925 -0.737221 -2.05427e-22)
(-19.3718 -0.282748 -3.4202e-23)
(-8.18194 28.0318 1.15933e-16)
(-31.8516 37.377 -9.20009e-17)
(-36.9598 27.1429 -3.86229e-20)
(-32.6442 17.8123 4.7277e-17)
(-28.0839 12.3813 3.52723e-17)
(-25.5729 9.52978 2.86635e-22)
(-24.7217 7.97776 2.25695e-36)
(-24.4974 6.95544 4.89415e-17)
(-24.671 6.24553 -1.1619e-21)
(-24.9665 5.68089 8.01952e-22)
(-25.2559 5.20682 -1.66429e-21)
(-25.5582 4.79058 2.66809e-17)
(-25.7584 4.40352 2.85713e-17)
(-25.8764 4.05467 2.81573e-17)
(-25.8911 3.71409 -2.77547e-17)
(-25.7429 3.38721 -8.34295e-34)
(-25.4942 3.08496 -2.87911e-17)
(-25.0999 2.78472 -2.82731e-17)
(-24.704 2.51289 -1.48506e-17)
(-24.2633 2.26523 -1.4669e-17)
(-23.8586 2.03824 8.75885e-22)
(-23.4414 1.82752 -8.92008e-22)
(-23.0631 1.63782 1.48401e-17)
(-22.6918 1.46468 -4.47453e-22)
(-22.3641 1.30523 -1.41059e-37)
(-21.9974 1.13646 -7.15113e-18)
(-21.3543 0.948046 6.65358e-18)
(-20.997 0.843952 6.63658e-18)
(-21.088 0.799207 1.53919e-34)
(-21.9048 0.735399 -5.27371e-23)
(-19.3042 0.284923 7.18076e-23)
(-18.519 0.460918 3.59675e-18)
(-21.162 0.534782 1.14729e-22)
(-20.7107 0.365656 5.0749e-35)
(-19.615 0.207578 7.85083e-36)
(-19.1813 0.149171 -9.23231e-19)
(-19.211 0.0973571 4.18827e-22)
(-19.1496 0.0413071 -4.11915e-22)
(-19.0409 -0.0257511 -4.12638e-22)
(-18.7803 -0.0941092 8.90983e-19)
(-18.5265 -0.149088 8.76917e-19)
(-18.364 -0.201804 -1.73065e-18)
(-18.1982 -0.25044 -1.70752e-18)
(-18.0383 -0.295948 1.68628e-18)
(-17.8911 -0.339869 -1.69708e-18)
(-17.7362 -0.383919 -3.37777e-18)
(-17.5608 -0.423892 -8.08742e-22)
(-17.3958 -0.461155 3.29354e-18)
(-17.2461 -0.496082 -1.17549e-37)
(-17.1233 -0.529568 -3.68729e-34)
(-16.9909 -0.563377 3.24283e-18)
(-16.8299 -0.594495 -6.58277e-37)
(-16.676 -0.62361 -3.16378e-18)
(-16.5383 -0.651152 -3.12886e-18)
(-16.4132 -0.677032 7.60447e-22)
(-16.2997 -0.70176 -3.07746e-18)
(-16.1756 -0.727412 -6.13292e-18)
(-16.0329 -0.750423 -7.34706e-22)
(-15.9022 -0.772358 7.36961e-22)
(-15.7805 -0.79287 5.9281e-18)
(-15.6638 -0.811658 5.86255e-18)
(-15.5676 -0.830635 5.81936e-18)
(-15.4589 -0.850288 5.78296e-18)
(-15.3364 -0.86794 -1.14359e-17)
(-15.2163 -0.884265 1.13129e-17)
(-15.1022 -0.899301 -6.88179e-22)
(-15.0002 -0.913831 5.53492e-18)
(-14.9108 -0.92789 6.64051e-22)
(-14.8216 -0.94321 -9.94277e-24)
(-14.7131 -0.956961 -7.7565e-22)
(-14.6003 -0.968945 7.63047e-22)
(-14.4977 -0.980591 1.05013e-17)
(-14.4034 -0.991578 5.19719e-18)
(-14.3175 -1.002 -5.14438e-18)
(-14.2429 -1.01318 1.24877e-21)
(-14.153 -1.02453 1.21314e-21)
(-14.0495 -1.03355 4.95332e-18)
(-13.9543 -1.04247 -4.89995e-18)
(-13.8651 -1.0508 2.36585e-21)
(-13.783 -1.05868 -1.31005e-21)
(-13.7114 -1.06661 3.86973e-35)
(-13.639 -1.07523 4.63947e-18)
(-13.5523 -1.08307 -1.1097e-21)
(-13.4624 -1.08973 -4.53223e-18)
(-13.378 -1.09619 -4.48089e-18)
(-13.2994 -1.10234 1.0712e-21)
(-13.2263 -1.10824 -4.38114e-18)
(-13.1614 -1.11431 1.05889e-34)
(-13.0913 -1.12116 4.20411e-18)
(-13.0085 -1.12666 2.02748e-21)
(-12.9269 -1.13158 -1.14913e-21)
(-12.8496 -1.13616 -4.04761e-18)
(-12.7795 -1.14074 2.08117e-23)
(-12.7139 -1.145 9.73489e-22)
(-12.6564 -1.1496 -7.72379e-18)
(-12.5949 -1.15518 -9.05116e-22)
(-12.5223 -1.15936 3.69575e-18)
(-12.452 -1.16328 -3.63956e-18)
(-12.3869 -1.16713 -1.31905e-21)
(-12.3266 -1.17092 -3.53349e-18)
(-12.267 -1.17419 -3.48219e-18)
(-12.2113 -1.17764 -2.06887e-36)
(-12.1475 -1.18153 3.26897e-18)
(-12.0714 -1.18383 3.21191e-18)
(-11.9963 -1.1858 9.13968e-22)
(-11.924 -1.18751 -5.28698e-22)
(-11.8561 -1.18916 -3.03949e-18)
(-11.7909 -1.19055 -2.98238e-18)
(-11.7317 -1.1924 2.87607e-18)
(-11.6659 -1.19481 -6.72139e-22)
(-11.5893 -1.19573 2.69155e-18)
(-11.5148 -1.19649 -3.15074e-22)
(-11.4426 -1.19697 3.18635e-22)
(-11.375 -1.19749 2.99276e-22)
(-11.3103 -1.19782 -5.94286e-22)
(-11.2504 -1.19858 2.88105e-22)
(-11.1835 -1.1998 4.38292e-18)
(-11.1068 -1.19959 -2.1205e-18)
(-11.032 -1.19926 -2.43934e-22)
(-10.9597 -1.19874 3.94774e-18)
(-10.8905 -1.19814 1.89874e-18)
(-10.8251 -1.19755 2.28723e-22)
(-10.7627 -1.19754 -1.68073e-18)
(-10.6901 -1.19747 -3.23261e-38)
(-10.6095 -1.19602 -1.48498e-18)
(-10.5324 -1.19454 -1.77258e-22)
(-10.4588 -1.19296 -1.30964e-18)
(-10.3882 -1.19121 1.42057e-22)
(-10.3246 -1.18984 1.12599e-18)
(-10.2603 -1.18926 1.10959e-22)
(-10.1824 -1.18779 8.64831e-19)
(-10.1012 -1.18533 -1.42956e-23)
(-10.0249 -1.18298 6.54428e-19)
(-9.9529 -1.18058 -2.74595e-35)
(-9.88404 -1.178 4.52388e-23)
(-9.81873 -1.17584 -4.42233e-23)
(-9.74098 -1.17362 -9.13359e-36)
(-9.64827 -1.16923 -4.98024e-20)
(-9.55592 -1.16444 1.60146e-19)
(-9.46622 -1.15945 3.44102e-23)
(-9.37798 -1.15406 3.5453e-19)
(-9.29606 -1.14929 1.44317e-22)
(-9.20266 -1.14464 1.20147e-18)
(-9.09297 -1.13778 1.76063e-23)
(-8.98494 -1.13047 -1.03521e-22)
(-8.88055 -1.12288 1.95625e-36)
(-8.78013 -1.11505 1.61798e-35)
(-8.68636 -1.1081 9.40395e-38)
(-8.57589 -1.10081 1.50128e-18)
(-8.44828 -1.09069 3.07452e-22)
(-8.32673 -1.08059 1.92145e-18)
(-8.20825 -1.06995 -2.14894e-18)
(-8.09998 -1.05995 -9.40395e-38)
(-7.98084 -1.05027 1.23662e-35)
(-7.83724 -1.03757 -2.60047e-18)
(-7.6951 -1.02409 -2.88219e-18)
(-7.55725 -1.01018 1.88299e-22)
(-7.42953 -0.997077 -3.3035e-18)
(-7.2817 -0.983379 3.32847e-18)
(-7.10865 -0.965778 3.69135e-18)
(-6.94097 -0.947604 -9.96784e-23)
(-6.78685 -0.930013 -2.24136e-38)
(-6.61928 -0.91259 1.88157e-38)
(-6.40577 -0.888861 0)
(-6.21409 -0.866162 3.13113e-38)
(-5.99963 -0.839302 1.88079e-37)
(-5.82123 -0.8199 -5.39251e-18)
(-5.45074 -0.771293 6.24762e-18)
(-5.40759 -0.768667 -1.73722e-22)
(-4.61294 -0.660679 2.63499e-34)
(-5.18275 -0.741822 6.76635e-18)
(-1.97833 -0.767418 -3.82938e-18)
)
;
    }
}


// ************************************************************************* //
