# p  FACE_DATA 341
#  x  y  z  p
0.253551 0.0594249 0.5 -1012.72
0.260625 0.059604 0.5 -1052.17
0.268301 0.0597641 0.5 -1086.72
0.275825 0.0598682 0.5 -1068.07
0.282831 0.059928 0.5 -1039.15
0.290299 0.0599719 0.5 -1027.16
0.298014 0.0599954 0.5 -1017.77
0.305661 0.0599931 0.5 -1010.06
0.313016 0.0599637 0.5 -999.29
0.3202 0.0599102 0.5 -985.732
0.327394 0.0598346 0.5 -973.641
0.334592 0.0597382 0.5 -961.519
0.341788 0.059622 0.5 -949.266
0.348891 0.0594882 0.5 -937.833
0.355903 0.0593371 0.5 -926.709
0.362912 0.0591677 0.5 -914.421
0.369915 0.058981 0.5 -902.069
0.376908 0.0587783 0.5 -890.221
0.383848 0.0585616 0.5 -878.673
0.39071 0.0583318 0.5 -867.714
0.397536 0.0580877 0.5 -855.977
0.404349 0.0578293 0.5 -844.308
0.411146 0.0575577 0.5 -832.512
0.417921 0.0572738 0.5 -820.915
0.424635 0.05698 0.5 -809.864
0.431287 0.0566758 0.5 -799.159
0.437919 0.0563599 0.5 -787.802
0.444529 0.056033 0.5 -776.292
0.451115 0.055696 0.5 -764.946
0.457672 0.0553498 0.5 -753.836
0.464179 0.0549959 0.5 -743.398
0.47064 0.0546337 0.5 -732.853
0.477077 0.0542621 0.5 -721.915
0.483487 0.0538822 0.5 -710.892
0.489866 0.0534947 0.5 -700.073
0.496211 0.0531004 0.5 -689.439
0.50252 0.0526998 0.5 -679.166
0.508797 0.0522921 0.5 -669.084
0.515045 0.0518774 0.5 -658.574
0.52126 0.0514563 0.5 -648.052
0.52744 0.0510296 0.5 -637.596
0.533582 0.0505981 0.5 -627.296
0.539695 0.0501616 0.5 -617.267
0.545788 0.0497191 0.5 -607.615
0.551854 0.0492707 0.5 -597.635
0.557885 0.0488177 0.5 -587.554
0.563876 0.0483607 0.5 -577.463
0.569827 0.0479005 0.5 -567.509
0.575737 0.0474373 0.5 -557.756
0.58164 0.0469687 0.5 -548.305
0.587536 0.0464941 0.5 -538.875
0.593393 0.0460162 0.5 -529.21
0.599208 0.0455357 0.5 -519.51
0.60498 0.045053 0.5 -509.885
0.610706 0.0445687 0.5 -500.417
0.616408 0.0440814 0.5 -491.067
0.622117 0.043588 0.5 -481.998
0.627812 0.04309 0.5 -472.663
0.633463 0.0425903 0.5 -463.189
0.639069 0.0420895 0.5 -453.734
0.644626 0.0415881 0.5 -444.371
0.650134 0.0410868 0.5 -435.146
0.655639 0.0405812 0.5 -426.059
0.661165 0.0400689 0.5 -417.114
0.666665 0.039554 0.5 -407.911
0.672117 0.0390389 0.5 -398.65
0.677519 0.038524 0.5 -389.426
0.682868 0.0380099 0.5 -380.293
0.688165 0.037497 0.5 -371.262
0.693484 0.0369779 0.5 -362.33
0.698837 0.0364512 0.5 -353.357
0.704147 0.0359241 0.5 -344.203
0.709405 0.0353979 0.5 -335.041
0.714609 0.0348733 0.5 -325.924
0.719757 0.0343505 0.5 -316.896
0.724855 0.0338293 0.5 -307.946
0.729999 0.0332999 0.5 -299.068
0.73518 0.0327625 0.5 -290.011
0.740306 0.0322267 0.5 -280.795
0.745375 0.0316932 0.5 -271.564
0.750386 0.0311622 0.5 -262.37
0.755336 0.0306343 0.5 -253.257
0.76026 0.0301061 0.5 -244.175
0.765241 0.0295683 0.5 -235.104
0.770246 0.0290241 0.5 -225.798
0.775191 0.0284829 0.5 -216.371
0.780073 0.027945 0.5 -206.944
0.784891 0.0274108 0.5 -197.555
0.789645 0.0268807 0.5 -188.236
0.794414 0.0263459 0.5 -178.862
0.799254 0.0257999 0.5 -169.38
0.804082 0.0252514 0.5 -159.605
0.808843 0.0247071 0.5 -149.747
0.813536 0.0241673 0.5 -139.888
0.81816 0.0236326 0.5 -130.079
0.822721 0.0231023 0.5 -120.317
0.827366 0.0225594 0.5 -110.424
0.832084 0.0220045 0.5 -100.19
0.836729 0.0214548 0.5 -89.7583
0.841299 0.0209107 0.5 -79.318
0.845793 0.0203728 0.5 -68.8871
0.85021 0.0198415 0.5 -58.5202
0.854677 0.0193015 0.5 -47.9773
0.859239 0.0187469 0.5 -37.1796
0.863766 0.0181934 0.5 -26.0364
0.868209 0.0176469 0.5 -14.8485
0.872568 0.017108 0.5 -3.66468
0.87684 0.0165772 0.5 7.4478
0.881165 0.0160373 0.5 18.8374
0.885597 0.0154808 0.5 30.5972
0.889995 0.0149253 0.5 42.7979
0.894296 0.0143788 0.5 55.057
0.8985 0.013842 0.5 67.2778
0.902612 0.0133146 0.5 79.469
0.90685 0.0127685 0.5 92.0774
0.911199 0.0122047 0.5 105.364
0.915436 0.0116524 0.5 118.896
0.919558 0.0111121 0.5 132.394
0.923564 0.0105848 0.5 145.805
0.92766 0.0100432 0.5 159.708
0.931889 0.00948105 0.5 174.269
0.936032 0.00892713 0.5 189.298
0.940034 0.00838932 0.5 204.215
0.943918 0.00786528 0.5 219.118
0.947957 0.00731753 0.5 234.755
0.952111 0.00675118 0.5 251.469
0.956082 0.0062066 0.5 268.237
0.959868 0.005685 0.5 284.775
0.963806 0.00514008 0.5 302.266
0.967884 0.00457263 0.5 321.009
0.971729 0.00403453 0.5 339.849
0.97552 0.00350184 0.5 359.053
0.979458 0.0029459 0.5 379.572
0.983267 0.00240536 0.5 400.246
0.98706 0.00186472 0.5 423.83
0.990882 0.00131704 0.5 443.795
0.994678 0.000770466 0.5 478.323
0.99832 0.00024378 0.5 481.486
0.00133235 0.00449653 0.5 3725.71
0.00576479 0.0125392 0.5 1728.4
0.0127073 0.018847 0.5 284.428
0.0207688 0.0238748 0.5 -331.534
0.0291543 0.0279559 0.5 -645.512
0.037672 0.0313759 0.5 -856.792
0.0464094 0.0343841 0.5 -970.708
0.0551576 0.0370177 0.5 -1060.61
0.0639069 0.0393539 0.5 -1118.55
0.0727041 0.0414595 0.5 -1156.23
0.081414 0.0433437 0.5 -1186.87
0.090183 0.0450639 0.5 -1205.94
0.098871 0.0466203 0.5 -1221.65
0.107395 0.0480148 0.5 -1229.3
0.116087 0.049318 0.5 -1236.98
0.124618 0.0504925 0.5 -1239.38
0.132994 0.0515502 0.5 -1240.9
0.141535 0.0525408 0.5 -1242.29
0.149928 0.053435 0.5 -1242.53
0.158135 0.0542362 0.5 -1241.68
0.166435 0.0549791 0.5 -1230.15
0.174718 0.0556571 0.5 -1209.44
0.182824 0.0562624 0.5 -1185.86
0.190865 0.0568083 0.5 -1165.66
0.198976 0.0573076 0.5 -1149.65
0.20712 0.0577564 0.5 -1141.11
0.215524 0.0581602 0.5 -1133.11
0.224086 0.0585239 0.5 -1108.31
0.231971 0.0588335 0.5 -1102.71
0.239768 0.0591111 0.5 -1104.98
0.246955 0.0592927 0.5 -1148.56
0.00133235 -0.00449653 0.5 3725.05
0.00576479 -0.0125392 0.5 1734.98
0.0127073 -0.018847 0.5 273.771
0.0207688 -0.0238748 0.5 -337.172
0.0291543 -0.0279559 0.5 -651.471
0.037672 -0.0313759 0.5 -848.609
0.0464094 -0.0343841 0.5 -981.483
0.0551576 -0.0370177 0.5 -1064.54
0.0639069 -0.0393539 0.5 -1118.84
0.0727041 -0.0414595 0.5 -1159.6
0.081414 -0.0433437 0.5 -1188.92
0.090183 -0.0450639 0.5 -1208.46
0.098871 -0.0466203 0.5 -1222.53
0.107395 -0.0480148 0.5 -1230.65
0.116087 -0.049318 0.5 -1236.79
0.124618 -0.0504925 0.5 -1239.46
0.132994 -0.0515502 0.5 -1239.29
0.141535 -0.0525408 0.5 -1240.08
0.149928 -0.053435 0.5 -1237.22
0.158135 -0.0542362 0.5 -1237.22
0.166435 -0.0549791 0.5 -1234.54
0.174718 -0.0556571 0.5 -1230.5
0.182824 -0.0562624 0.5 -1214.38
0.190865 -0.0568083 0.5 -1191.01
0.198976 -0.0573076 0.5 -1164.17
0.20712 -0.0577564 0.5 -1145.23
0.215524 -0.0581602 0.5 -1128.61
0.224086 -0.0585239 0.5 -1101.95
0.231971 -0.0588335 0.5 -1096.29
0.239768 -0.0591111 0.5 -1099.62
0.246955 -0.0592927 0.5 -1146.24
0.253478 -0.0594229 0.5 -1009.21
0.260394 -0.0595984 0.5 -1049.28
0.267845 -0.0597569 0.5 -1084.36
0.275233 -0.059862 0.5 -1069.04
0.282135 -0.059923 0.5 -1039.19
0.289403 -0.0599678 0.5 -1027.41
0.296942 -0.0599937 0.5 -1018.27
0.304465 -0.0599955 0.5 -1010.03
0.311708 -0.0599711 0.5 -1001.17
0.318744 -0.0599229 0.5 -987.734
0.325783 -0.0598535 0.5 -975.626
0.332827 -0.0597638 0.5 -964.011
0.339871 -0.0596549 0.5 -952.27
0.346848 -0.0595287 0.5 -940.82
0.353736 -0.0593859 0.5 -929.816
0.360596 -0.0592257 0.5 -918.385
0.367453 -0.0590487 0.5 -906.397
0.3743 -0.0588558 0.5 -894.553
0.381124 -0.0586486 0.5 -882.886
0.38787 -0.0584289 0.5 -872.354
0.394554 -0.0581963 0.5 -861.237
0.401228 -0.0579495 0.5 -849.605
0.407888 -0.0576896 0.5 -838.002
0.41453 -0.0574175 0.5 -826.667
0.421133 -0.0571349 0.5 -815.693
0.427675 -0.0568427 0.5 -805.22
0.434175 -0.0565398 0.5 -794.323
0.440657 -0.0562259 0.5 -783.059
0.447118 -0.0559019 0.5 -772.053
0.453553 -0.0555685 0.5 -761.054
0.459952 -0.0552271 0.5 -750.302
0.466305 -0.054878 0.5 -740.249
0.472621 -0.0545205 0.5 -729.715
0.478913 -0.0541543 0.5 -719.137
0.485178 -0.0537804 0.5 -708.392
0.491413 -0.0533994 0.5 -697.797
0.497615 -0.0530121 0.5 -687.454
0.503783 -0.0526186 0.5 -677.56
0.509921 -0.0522183 0.5 -667.678
0.51603 -0.0518112 0.5 -657.37
0.522108 -0.0513982 0.5 -647.017
0.528152 -0.05098 0.5 -636.786
0.534159 -0.0505573 0.5 -626.747
0.54014 -0.0501296 0.5 -616.985
0.546102 -0.0496961 0.5 -607.613
0.552038 -0.0492571 0.5 -597.791
0.557939 -0.0488136 0.5 -587.864
0.563803 -0.0483664 0.5 -578.006
0.569628 -0.047916 0.5 -568.264
0.575412 -0.047463 0.5 -558.736
0.58119 -0.0470047 0.5 -549.521
0.586964 -0.0465405 0.5 -540.288
0.5927 -0.0460731 0.5 -530.823
0.598397 -0.0456031 0.5 -521.349
0.604052 -0.045131 0.5 -511.933
0.609664 -0.0446572 0.5 -502.662
0.615243 -0.0441814 0.5 -493.54
0.620829 -0.0436999 0.5 -484.638
0.626413 -0.0432129 0.5 -475.558
0.631955 -0.0427242 0.5 -466.307
0.637454 -0.0422343 0.5 -457.074
0.642907 -0.0417437 0.5 -447.87
0.648313 -0.041253 0.5 -438.864
0.653694 -0.0407603 0.5 -429.916
0.659096 -0.0402614 0.5 -421.188
0.664496 -0.0397577 0.5 -412.261
0.669852 -0.0392536 0.5 -403.221
0.675159 -0.0387495 0.5 -394.198
0.680418 -0.0382459 0.5 -385.231
0.685626 -0.0377433 0.5 -376.403
0.690816 -0.0372389 0.5 -367.615
0.696038 -0.0367272 0.5 -358.959
0.701263 -0.0362109 0.5 -350.075
0.706438 -0.0356954 0.5 -341.095
0.711561 -0.035181 0.5 -332.131
0.716633 -0.0346682 0.5 -323.213
0.72165 -0.0341574 0.5 -314.419
0.726654 -0.0336446 0.5 -305.637
0.731704 -0.0331235 0.5 -296.931
0.736758 -0.032598 0.5 -287.977
0.741759 -0.0320742 0.5 -278.932
0.746705 -0.0315527 0.5 -269.908
0.751594 -0.0310337 0.5 -260.904
0.756425 -0.0305178 0.5 -252.03
0.761255 -0.029999 0.5 -243.123
0.766142 -0.0294707 0.5 -234.225
0.771031 -0.0289385 0.5 -225.066
0.775861 -0.0284092 0.5 -215.836
0.780632 -0.0278832 0.5 -206.617
0.785341 -0.0273608 0.5 -197.431
0.789989 -0.0268423 0.5 -188.321
0.79466 -0.0263184 0.5 -179.153
0.799401 -0.0257833 0.5 -169.863
0.804125 -0.0252465 0.5 -160.274
0.808785 -0.0247137 0.5 -150.626
0.81338 -0.0241853 0.5 -140.981
0.817908 -0.0236617 0.5 -131.385
0.822369 -0.0231434 0.5 -121.84
0.826908 -0.0226131 0.5 -112.184
0.831528 -0.0220701 0.5 -102.21
0.836084 -0.0215313 0.5 -92.0124
0.840568 -0.0209979 0.5 -81.7869
0.844979 -0.0204704 0.5 -71.5781
0.849317 -0.0199491 0.5 -61.4281
0.853667 -0.0194238 0.5 -51.161
0.858113 -0.0188842 0.5 -40.7055
0.862564 -0.0183407 0.5 -29.8562
0.866936 -0.0178038 0.5 -18.9071
0.871227 -0.0172741 0.5 -7.96151
0.875436 -0.016752 0.5 2.93485
0.879628 -0.0162295 0.5 13.9598
0.88393 -0.0156905 0.5 25.2547
0.88827 -0.0151435 0.5 37.1192
0.892518 -0.014605 0.5 49.0997
0.896674 -0.0140755 0.5 61.0822
0.900735 -0.0135557 0.5 73.0121
0.904824 -0.01303 0.5 85.2068
0.909034 -0.0124858 0.5 97.789
0.913238 -0.0119394 0.5 110.974
0.917332 -0.0114042 0.5 124.218
0.921316 -0.010881 0.5 137.388
0.925241 -0.0103633 0.5 150.657
0.929306 -0.00982488 0.5 164.431
0.933445 -0.00927338 0.5 179.023
0.937451 -0.00873681 0.5 193.729
0.941321 -0.00821597 0.5 208.302
0.945168 -0.00769601 0.5 223.183
0.949167 -0.00715299 0.5 238.731
0.953183 -0.00660441 0.5 255.214
0.957024 -0.006077 0.5 271.587
0.960743 -0.00556416 0.5 287.987
0.964631 -0.00502557 0.5 305.295
0.968598 -0.00447292 0.5 323.855
0.972318 -0.00395183 0.5 342.25
0.976051 -0.00342699 0.5 361.262
0.979926 -0.00287974 0.5 381.619
0.983612 -0.00235633 0.5 401.869
0.987331 -0.00182587 0.5 425.099
0.991079 -0.00128868 0.5 444.854
0.994786 -0.000754822 0.5 478.864
0.998359 -0.000238135 0.5 481.783
