# p  FACE_DATA 341
#  x  y  z  p
0.253551 0.0594249 0.5 1980.56
0.260625 0.059604 0.5 1961.52
0.268301 0.0597641 0.5 1979.57
0.275825 0.0598682 0.5 1999
0.282831 0.059928 0.5 2025.35
0.290299 0.0599719 0.5 2044.78
0.298014 0.0599954 0.5 2066.81
0.305661 0.0599931 0.5 2085.05
0.313016 0.0599637 0.5 2105.22
0.3202 0.0599102 0.5 2124.5
0.327394 0.0598346 0.5 2144.03
0.334592 0.0597382 0.5 2163.18
0.341788 0.059622 0.5 2182.23
0.348891 0.0594882 0.5 2200.62
0.355903 0.0593371 0.5 2218.85
0.362912 0.0591677 0.5 2237.07
0.369915 0.058981 0.5 2255.41
0.376908 0.0587783 0.5 2273.3
0.383848 0.0585616 0.5 2291.12
0.39071 0.0583318 0.5 2308.12
0.397536 0.0580877 0.5 2325.61
0.404349 0.0578293 0.5 2342.65
0.411146 0.0575577 0.5 2359.86
0.417921 0.0572738 0.5 2376.64
0.424635 0.05698 0.5 2393.12
0.431287 0.0566758 0.5 2409.37
0.437919 0.0563599 0.5 2425.67
0.444529 0.056033 0.5 2441.94
0.451115 0.055696 0.5 2457.96
0.457672 0.0553498 0.5 2473.93
0.464179 0.0549959 0.5 2489.37
0.47064 0.0546337 0.5 2504.84
0.477077 0.0542621 0.5 2520.23
0.483487 0.0538822 0.5 2535.57
0.489866 0.0534947 0.5 2550.79
0.496211 0.0531004 0.5 2565.77
0.50252 0.0526998 0.5 2580.51
0.508797 0.0522921 0.5 2595.07
0.515045 0.0518774 0.5 2609.71
0.52126 0.0514563 0.5 2624.2
0.52744 0.0510296 0.5 2638.61
0.533582 0.0505981 0.5 2652.82
0.539695 0.0501616 0.5 2666.85
0.545788 0.0497191 0.5 2680.65
0.551854 0.0492707 0.5 2694.55
0.557885 0.0488177 0.5 2708.29
0.563876 0.0483607 0.5 2721.96
0.569827 0.0479005 0.5 2735.47
0.575737 0.0474373 0.5 2748.78
0.58164 0.0469687 0.5 2761.92
0.587536 0.0464941 0.5 2775.01
0.593393 0.0460162 0.5 2788.06
0.599208 0.0455357 0.5 2800.94
0.60498 0.045053 0.5 2813.72
0.610706 0.0445687 0.5 2826.27
0.616408 0.0440814 0.5 2838.72
0.622117 0.043588 0.5 2851.04
0.627812 0.04309 0.5 2863.38
0.633463 0.0425903 0.5 2875.6
0.639069 0.0420895 0.5 2887.66
0.644626 0.0415881 0.5 2899.61
0.650134 0.0410868 0.5 2911.32
0.655639 0.0405812 0.5 2922.98
0.661165 0.0400689 0.5 2934.49
0.666665 0.039554 0.5 2946.07
0.672117 0.0390389 0.5 2957.41
0.677519 0.038524 0.5 2968.7
0.682868 0.0380099 0.5 2979.75
0.688165 0.037497 0.5 2990.68
0.693484 0.0369779 0.5 3001.49
0.698837 0.0364512 0.5 3012.35
0.704147 0.0359241 0.5 3023.08
0.709405 0.0353979 0.5 3033.69
0.714609 0.0348733 0.5 3044.12
0.719757 0.0343505 0.5 3054.4
0.724855 0.0338293 0.5 3064.48
0.729999 0.0332999 0.5 3074.56
0.73518 0.0327625 0.5 3084.64
0.740306 0.0322267 0.5 3094.62
0.745375 0.0316932 0.5 3104.38
0.750386 0.0311622 0.5 3114.03
0.755336 0.0306343 0.5 3123.44
0.76026 0.0301061 0.5 3132.77
0.765241 0.0295683 0.5 3142.05
0.770246 0.0290241 0.5 3151.37
0.775191 0.0284829 0.5 3160.49
0.780073 0.027945 0.5 3169.47
0.784891 0.0274108 0.5 3178.23
0.789645 0.0268807 0.5 3186.82
0.794414 0.0263459 0.5 3195.32
0.799254 0.0257999 0.5 3203.86
0.804082 0.0252514 0.5 3212.32
0.808843 0.0247071 0.5 3220.61
0.813536 0.0241673 0.5 3228.68
0.81816 0.0236326 0.5 3236.57
0.822721 0.0231023 0.5 3244.21
0.827366 0.0225594 0.5 3251.91
0.832084 0.0220045 0.5 3259.61
0.836729 0.0214548 0.5 3267.15
0.841299 0.0209107 0.5 3274.41
0.845793 0.0203728 0.5 3281.52
0.85021 0.0198415 0.5 3288.35
0.854677 0.0193015 0.5 3295.17
0.859239 0.0187469 0.5 3301.9
0.863766 0.0181934 0.5 3308.56
0.868209 0.0176469 0.5 3314.91
0.872568 0.017108 0.5 3321.1
0.87684 0.0165772 0.5 3326.96
0.881165 0.0160373 0.5 3332.77
0.885597 0.0154808 0.5 3338.53
0.889995 0.0149253 0.5 3344.13
0.894296 0.0143788 0.5 3349.45
0.8985 0.013842 0.5 3354.5
0.902612 0.0133146 0.5 3359.23
0.90685 0.0127685 0.5 3363.91
0.911199 0.0122047 0.5 3368.43
0.915436 0.0116524 0.5 3372.72
0.919558 0.0111121 0.5 3376.62
0.923564 0.0105848 0.5 3380.22
0.92766 0.0100432 0.5 3383.52
0.931889 0.00948105 0.5 3386.67
0.936032 0.00892713 0.5 3389.39
0.940034 0.00838932 0.5 3391.74
0.943918 0.00786528 0.5 3393.57
0.947957 0.00731753 0.5 3395.2
0.952111 0.00675118 0.5 3396.16
0.956082 0.0062066 0.5 3396.87
0.959868 0.005685 0.5 3396.51
0.963806 0.00514008 0.5 3396.02
0.967884 0.00457263 0.5 3393.8
0.971729 0.00403453 0.5 3391.89
0.97552 0.00350184 0.5 3387.25
0.979458 0.0029459 0.5 3383.33
0.983267 0.00240536 0.5 3374.79
0.98706 0.00186472 0.5 3365.94
0.990882 0.00131704 0.5 3352.41
0.994678 0.000770466 0.5 3334.14
0.99832 0.00024378 0.5 3300.42
0.00133235 0.00449653 0.5 3442.98
0.00576479 0.0125392 0.5 1619.6
0.0127073 0.018847 0.5 1179.54
0.0207688 0.0238748 0.5 1020.73
0.0291543 0.0279559 0.5 1067.8
0.037672 0.0313759 0.5 1060.99
0.0464094 0.0343841 0.5 1123.27
0.0551576 0.0370177 0.5 1221.2
0.0639069 0.0393539 0.5 1256.73
0.0727041 0.0414595 0.5 1339.7
0.081414 0.0433437 0.5 1342.84
0.090183 0.0450639 0.5 1398.64
0.098871 0.0466203 0.5 1423.34
0.107395 0.0480148 0.5 1464.2
0.116087 0.049318 0.5 1490.49
0.124618 0.0504925 0.5 1534.39
0.132994 0.0515502 0.5 1553.96
0.141535 0.0525408 0.5 1593.69
0.149928 0.053435 0.5 1617.25
0.158135 0.0542362 0.5 1647.78
0.166435 0.0549791 0.5 1675.53
0.174718 0.0556571 0.5 1701.98
0.182824 0.0562624 0.5 1727.62
0.190865 0.0568083 0.5 1755.06
0.198976 0.0573076 0.5 1775.9
0.20712 0.0577564 0.5 1806.94
0.215524 0.0581602 0.5 1824.96
0.224086 0.0585239 0.5 1866.57
0.231971 0.0588335 0.5 1877.99
0.239768 0.0591111 0.5 1909.73
0.246955 0.0592927 0.5 1883.7
0.00133235 -0.00449653 0.5 5212.82
0.00576479 -0.0125392 0.5 4951.68
0.0127073 -0.018847 0.5 3917.22
0.0207688 -0.0238748 0.5 3472.42
0.0291543 -0.0279559 0.5 2932.54
0.037672 -0.0313759 0.5 2800.44
0.0464094 -0.0343841 0.5 2562.76
0.0551576 -0.0370177 0.5 2469.4
0.0639069 -0.0393539 0.5 2351.77
0.0727041 -0.0414595 0.5 2289.57
0.081414 -0.0433437 0.5 2218.81
0.090183 -0.0450639 0.5 2177.47
0.098871 -0.0466203 0.5 2131.04
0.107395 -0.0480148 0.5 2103.03
0.116087 -0.049318 0.5 2072.56
0.124618 -0.0504925 0.5 2050.94
0.132994 -0.0515502 0.5 2032.46
0.141535 -0.0525408 0.5 2015.57
0.149928 -0.053435 0.5 2004.13
0.158135 -0.0542362 0.5 1991.74
0.166435 -0.0549791 0.5 1984.84
0.174718 -0.0556571 0.5 1975.25
0.182824 -0.0562624 0.5 1971.67
0.190865 -0.0568083 0.5 1965.33
0.198976 -0.0573076 0.5 1963.01
0.20712 -0.0577564 0.5 1958.04
0.215524 -0.0581602 0.5 1959.33
0.224086 -0.0585239 0.5 1964.12
0.231971 -0.0588335 0.5 1954.01
0.239768 -0.0591111 0.5 1982.72
0.246955 -0.0592927 0.5 1906.43
0.253478 -0.0594229 0.5 2001.7
0.260394 -0.0595984 0.5 1960.31
0.267845 -0.0597569 0.5 1961.73
0.275233 -0.059862 0.5 1958.31
0.282135 -0.059923 0.5 1967.62
0.289403 -0.0599678 0.5 1971.66
0.296942 -0.0599937 0.5 1974.54
0.304465 -0.0599955 0.5 1978.35
0.311708 -0.0599711 0.5 1978.86
0.318744 -0.0599229 0.5 1984.67
0.325783 -0.0598535 0.5 1989.23
0.332827 -0.0597638 0.5 1992.18
0.339871 -0.0596549 0.5 1996.87
0.346848 -0.0595287 0.5 2001.06
0.353736 -0.0593859 0.5 2005.35
0.360596 -0.0592257 0.5 2009.69
0.367453 -0.0590487 0.5 2014.44
0.3743 -0.0588558 0.5 2019.11
0.381124 -0.0586486 0.5 2023.72
0.38787 -0.0584289 0.5 2028.14
0.394554 -0.0581963 0.5 2032.77
0.401228 -0.0579495 0.5 2037.65
0.407888 -0.0576896 0.5 2042.54
0.41453 -0.0574175 0.5 2047.49
0.421133 -0.0571349 0.5 2052.25
0.427675 -0.0568427 0.5 2056.87
0.434175 -0.0565398 0.5 2061.77
0.440657 -0.0562259 0.5 2066.78
0.447118 -0.0559019 0.5 2071.85
0.453553 -0.0555685 0.5 2076.84
0.459952 -0.0552271 0.5 2081.72
0.466305 -0.054878 0.5 2086.43
0.472621 -0.0545205 0.5 2091.38
0.478913 -0.0541543 0.5 2096.4
0.485178 -0.0537804 0.5 2101.47
0.491413 -0.0533994 0.5 2106.48
0.497615 -0.0530121 0.5 2111.37
0.503783 -0.0526186 0.5 2116.13
0.509921 -0.0522183 0.5 2121
0.51603 -0.0518112 0.5 2125.99
0.522108 -0.0513982 0.5 2131
0.528152 -0.05098 0.5 2136
0.534159 -0.0505573 0.5 2140.92
0.54014 -0.0501296 0.5 2145.72
0.546102 -0.0496961 0.5 2150.42
0.552038 -0.0492571 0.5 2155.34
0.557939 -0.0488136 0.5 2160.26
0.563803 -0.0483664 0.5 2165.21
0.569628 -0.047916 0.5 2170.12
0.575412 -0.047463 0.5 2174.94
0.58119 -0.0470047 0.5 2179.6
0.586964 -0.0465405 0.5 2184.35
0.5927 -0.0460731 0.5 2189.19
0.598397 -0.0456031 0.5 2194.06
0.604052 -0.045131 0.5 2198.9
0.609664 -0.0446572 0.5 2203.72
0.615243 -0.0441814 0.5 2208.44
0.620829 -0.0436999 0.5 2213.1
0.626413 -0.0432129 0.5 2217.9
0.631955 -0.0427242 0.5 2222.76
0.637454 -0.0422343 0.5 2227.64
0.642907 -0.0417437 0.5 2232.51
0.648313 -0.041253 0.5 2237.34
0.653694 -0.0407603 0.5 2242.09
0.659096 -0.0402614 0.5 2246.79
0.664496 -0.0397577 0.5 2251.64
0.669852 -0.0392536 0.5 2256.52
0.675159 -0.0387495 0.5 2261.43
0.680418 -0.0382459 0.5 2266.33
0.685626 -0.0377433 0.5 2271.22
0.690816 -0.0372389 0.5 2276.03
0.696038 -0.0367272 0.5 2280.86
0.701263 -0.0362109 0.5 2285.84
0.706438 -0.0356954 0.5 2290.87
0.711561 -0.035181 0.5 2295.93
0.716633 -0.0346682 0.5 2300.99
0.72165 -0.0341574 0.5 2306.03
0.726654 -0.0336446 0.5 2311.04
0.731704 -0.0331235 0.5 2316.1
0.736758 -0.032598 0.5 2321.33
0.741759 -0.0320742 0.5 2326.6
0.746705 -0.0315527 0.5 2331.92
0.751594 -0.0310337 0.5 2337.25
0.756425 -0.0305178 0.5 2342.58
0.761255 -0.029999 0.5 2347.91
0.766142 -0.0294707 0.5 2353.35
0.771031 -0.0289385 0.5 2358.95
0.775861 -0.0284092 0.5 2364.62
0.780632 -0.0278832 0.5 2370.35
0.785341 -0.0273608 0.5 2376.1
0.789989 -0.0268423 0.5 2381.86
0.79466 -0.0263184 0.5 2387.7
0.799401 -0.0257833 0.5 2393.72
0.804125 -0.0252465 0.5 2399.95
0.808785 -0.0247137 0.5 2406.27
0.81338 -0.0241853 0.5 2412.66
0.817908 -0.0236617 0.5 2419.09
0.822369 -0.0231434 0.5 2425.54
0.826908 -0.0226131 0.5 2432.18
0.831528 -0.0220701 0.5 2439.13
0.836084 -0.0215313 0.5 2446.27
0.840568 -0.0209979 0.5 2453.5
0.844979 -0.0204704 0.5 2460.82
0.849317 -0.0199491 0.5 2468.21
0.853667 -0.0194238 0.5 2475.76
0.858113 -0.0188842 0.5 2483.65
0.862564 -0.0183407 0.5 2491.89
0.866936 -0.0178038 0.5 2500.27
0.871227 -0.0172741 0.5 2508.81
0.875436 -0.016752 0.5 2517.45
0.879628 -0.0162295 0.5 2526.32
0.88393 -0.0156905 0.5 2535.65
0.88827 -0.0151435 0.5 2545.55
0.892518 -0.014605 0.5 2555.65
0.896674 -0.0140755 0.5 2565.97
0.900735 -0.0135557 0.5 2576.44
0.904824 -0.01303 0.5 2587.37
0.909034 -0.0124858 0.5 2599
0.913238 -0.0119394 0.5 2611.3
0.917332 -0.0114042 0.5 2623.87
0.921316 -0.010881 0.5 2636.72
0.925241 -0.0103633 0.5 2649.96
0.929306 -0.00982488 0.5 2664.19
0.933445 -0.00927338 0.5 2679.54
0.937451 -0.00873681 0.5 2695.31
0.941321 -0.00821597 0.5 2711.41
0.945168 -0.00769601 0.5 2728.32
0.949167 -0.00715299 0.5 2746.73
0.953183 -0.00660441 0.5 2766.48
0.957024 -0.006077 0.5 2786.7
0.960743 -0.00556416 0.5 2807.62
0.964631 -0.00502557 0.5 2830.64
0.968598 -0.00447292 0.5 2855.81
0.972318 -0.00395183 0.5 2880.78
0.976051 -0.00342699 0.5 2909.72
0.979926 -0.00287974 0.5 2936.1
0.983612 -0.00235633 0.5 2973.76
0.987331 -0.00182587 0.5 2997.06
0.991079 -0.00128868 0.5 3046.41
0.994786 -0.000754822 0.5 3074.33
0.998359 -0.000238135 0.5 3097.9
