# wallShearStress  FACE_DATA 341
#  x  y  z  wallShearStress_x  wallShearStress_y  wallShearStress_z  
0.253551 0.0594249 0.5 -18.1493 -0.450915 3.63245e-18
0.260625 0.059604 0.5 -20.3082 -0.51066 -3.80445e-18
0.268301 0.0597641 0.5 -20.0374 -0.342208 3.33401e-18
0.275825 0.0598682 0.5 -18.8893 -0.194391 -1.00908e-18
0.282831 0.059928 0.5 -18.416 -0.138935 -9.10945e-19
0.290299 0.0599719 0.5 -18.3953 -0.0874011 1.07106e-34
0.298014 0.0599954 0.5 -18.3234 -0.0312423 -2.09279e-19
0.305661 0.0599931 0.5 -18.1409 0.0354235 -4.26367e-19
0.313016 0.0599637 0.5 -17.8584 0.0989757 -8.87417e-19
0.3202 0.0599102 0.5 -17.6214 0.151844 8.73e-19
0.327394 0.0598346 0.5 -17.444 0.201876 4.23474e-22
0.334592 0.0597382 0.5 -17.2724 0.248054 1.70282e-18
0.341788 0.059622 0.5 -17.1204 0.291575 -1.68125e-18
0.348891 0.0594882 0.5 -16.9807 0.334744 -9.98342e-24
0.355903 0.0593371 0.5 -16.8152 0.375866 -8.27245e-22
0.362912 0.0591677 0.5 -16.6433 0.413408 8.06241e-22
0.369915 0.058981 0.5 -16.4979 0.449166 -6.56791e-18
0.376908 0.0587783 0.5 -16.359 0.482388 3.87913e-37
0.383848 0.0585616 0.5 -16.2237 0.513916 -3.24611e-18
0.39071 0.0583318 0.5 -16.0717 0.545782 -1.0346e-23
0.397536 0.0580877 0.5 -15.9108 0.574771 -7.85775e-22
0.404349 0.0578293 0.5 -15.7583 0.60178 3.16032e-18
0.411146 0.0575577 0.5 -15.6179 0.626902 -3.12454e-18
0.417921 0.0572738 0.5 -15.4957 0.650876 4.70198e-38
0.424635 0.05698 0.5 -15.3843 0.675454 -6.18923e-18
0.431287 0.0566758 0.5 -15.2565 0.699356 -6.1272e-18
0.437919 0.0563599 0.5 -15.1202 0.72045 1.10171e-22
0.444529 0.056033 0.5 -14.996 0.740559 -5.98927e-18
0.451115 0.055696 0.5 -14.8841 0.759616 -9.40395e-38
0.457672 0.0553498 0.5 -14.7883 0.778061 5.86751e-18
0.464179 0.0549959 0.5 -14.6908 0.797014 -2.85429e-21
0.47064 0.0546337 0.5 -14.5767 0.814861 1.15682e-17
0.477077 0.0542621 0.5 -14.4587 0.830767 5.71625e-18
0.483487 0.0538822 0.5 -14.3517 0.84606 2.76237e-21
0.489866 0.0534947 0.5 -14.2542 0.860566 -2.0985e-23
0.496211 0.0531004 0.5 -14.167 0.874359 -1.1087e-17
0.50252 0.0526998 0.5 -14.0843 0.888891 -1.35091e-21
0.508797 0.0522921 0.5 -13.9871 0.903099 5.4343e-18
0.515045 0.0518774 0.5 -13.8837 0.915308 5.37654e-18
0.52126 0.0514563 0.5 -13.7867 0.926912 5.31643e-18
0.52744 0.0510296 0.5 -13.697 0.937802 5.26232e-18
0.533582 0.0505981 0.5 -13.616 0.948209 1.6156e-34
0.539695 0.0501616 0.5 -13.5444 0.959015 -2.35099e-37
0.545788 0.0497191 0.5 -13.4625 0.970499 5.07889e-18
0.551854 0.0492707 0.5 -13.3697 0.979956 -5.02411e-18
0.557885 0.0488177 0.5 -13.2792 0.988655 4.96833e-18
0.563876 0.0483607 0.5 -13.1959 0.996957 -7.99336e-37
0.569827 0.0479005 0.5 -13.1201 1.00496 1.17738e-21
0.575737 0.0474373 0.5 -13.0538 1.01291 -1.18505e-21
0.58164 0.0469687 0.5 -12.9877 1.02187 4.70198e-37
0.587536 0.0464941 0.5 -12.9091 1.02993 -4.6591e-18
0.593393 0.0460162 0.5 -12.8262 1.03664 -1.49335e-22
0.599208 0.0455357 0.5 -12.7481 1.04311 1.84723e-34
0.60498 0.045053 0.5 -12.676 1.04941 1.86767e-34
0.610706 0.0445687 0.5 -12.609 1.05541 1.07812e-21
0.616408 0.0440814 0.5 -12.5502 1.06187 1.28487e-22
0.622117 0.043588 0.5 -12.4835 1.06896 -4.28295e-18
0.627812 0.04309 0.5 -12.4061 1.07436 -4.23055e-18
0.633463 0.0425903 0.5 -12.3303 1.07926 8.35741e-18
0.639069 0.0420895 0.5 -12.2603 1.08406 8.25504e-18
0.644626 0.0415881 0.5 -12.196 1.08869 -4.07758e-18
0.650134 0.0410868 0.5 -12.1384 1.09329 -3.82036e-38
0.655639 0.0405812 0.5 -12.0868 1.09862 -3.9122e-18
0.661165 0.0400689 0.5 -12.0267 1.10424 -7.66603e-18
0.666665 0.039554 0.5 -11.96 1.10845 2.35099e-36
0.672117 0.0390389 0.5 -11.8974 1.11262 8.99636e-22
0.677519 0.038524 0.5 -11.8416 1.11694 -9.08123e-22
0.682868 0.0380099 0.5 -11.7925 1.12135 -1.5979e-22
0.688165 0.037497 0.5 -11.7527 1.12621 3.57526e-18
0.693484 0.0369779 0.5 -11.7198 1.13234 2.8052e-34
0.698837 0.0364512 0.5 -11.675 1.138 8.09504e-22
0.704147 0.0359241 0.5 -11.6182 1.14181 1.37016e-22
0.709405 0.0353979 0.5 -11.5584 1.1449 -3.24951e-18
0.714609 0.0348733 0.5 -11.4986 1.14751 3.19363e-18
0.719757 0.0343505 0.5 -11.4401 1.1497 7.55596e-22
0.724855 0.0338293 0.5 -11.3869 1.15205 -3.07666e-18
0.729999 0.0332999 0.5 -11.331 1.15505 -1.53851e-22
0.73518 0.0327625 0.5 -11.264 1.15716 -2.85265e-18
0.740306 0.0322267 0.5 -11.1938 1.15835 -6.81804e-22
0.745375 0.0316932 0.5 -11.1264 1.15944 2.73213e-18
0.750386 0.0311622 0.5 -11.0625 1.16042 2.67017e-18
0.755336 0.0306343 0.5 -11.0019 1.16127 -2.6088e-18
0.76026 0.0301061 0.5 -10.947 1.16248 2.51195e-18
0.765241 0.0295683 0.5 -10.8876 1.16433 6.63919e-35
0.770246 0.0290241 0.5 -10.8181 1.16497 -5.19456e-35
0.775191 0.0284829 0.5 -10.7472 1.16504 1e-34
0.780073 0.027945 0.5 -10.6793 1.16505 4.56113e-35
0.784891 0.0274108 0.5 -10.6142 1.16496 2.49233e-22
0.789645 0.0268807 0.5 -10.5526 1.16483 -2.02017e-18
0.794414 0.0263459 0.5 -10.494 1.16519 1.881e-18
0.799254 0.0257999 0.5 -10.4268 1.16574 1.76502e-18
0.804082 0.0252514 0.5 -10.3508 1.16479 2.94256e-35
0.808843 0.0247071 0.5 -10.276 1.16354 1.6046e-18
0.813536 0.0241673 0.5 -10.2046 1.1622 -3.71267e-22
0.81816 0.0236326 0.5 -10.1364 1.16073 2.87136e-18
0.822721 0.0231023 0.5 -10.0742 1.15953 -1.34338e-18
0.827366 0.0225594 0.5 -10.009 1.15902 -1.50164e-22
0.832084 0.0220045 0.5 -9.93076 1.15747 -2.16692e-18
0.836729 0.0214548 0.5 -9.84915 1.15488 9.86081e-19
0.841299 0.0209107 0.5 -9.77066 1.15218 -8.85935e-19
0.845793 0.0203728 0.5 -9.69551 1.1493 -7.82413e-19
0.85021 0.0198415 0.5 -9.62529 1.14649 2.35099e-38
0.854677 0.0193015 0.5 -9.55776 1.14435 -1.06567e-18
0.859239 0.0187469 0.5 -9.47844 1.14202 -5.76111e-23
0.863766 0.0181934 0.5 -9.39004 1.13801 2.93711e-19
0.868209 0.0176469 0.5 -9.30392 1.13384 2.86369e-23
0.872568 0.017108 0.5 -9.2215 1.12959 1.24982e-39
0.87684 0.0165772 0.5 -9.14303 1.12531 -0
0.881165 0.0160373 0.5 -9.06625 1.12161 -4.30479e-42
0.885597 0.0154808 0.5 -8.97573 1.11759 -5.10584e-23
0.889995 0.0149253 0.5 -8.87473 1.11155 5.21658e-23
0.894296 0.0143788 0.5 -8.77792 1.1054 8.8889e-23
0.8985 0.013842 0.5 -8.68532 1.09904 8.18819e-19
0.902612 0.0133146 0.5 -8.60097 1.09305 -9.87565e-19
0.90685 0.0127685 0.5 -8.51211 1.08779 1.38415e-22
0.911199 0.0122047 0.5 -8.40339 1.08073 -1.24094e-18
0.915436 0.0116524 0.5 -8.28966 1.07206 2.87645e-18
0.919558 0.0111121 0.5 -8.18169 1.06332 -1.05664e-22
0.923564 0.0105848 0.5 -8.08051 1.05457 1.86711e-18
0.92766 0.0100432 0.5 -7.97964 1.0464 -1.27394e-22
0.931889 0.00948105 0.5 -7.85673 1.0369 -2.09037e-18
0.936032 0.00892713 0.5 -7.72149 1.02478 -2.34877e-18
0.940034 0.00838932 0.5 -7.59052 1.01227 1.66121e-22
0.943918 0.00786528 0.5 -7.46872 1 2.88658e-18
0.947957 0.00731753 0.5 -7.33489 0.98771 -2.79472e-18
0.952111 0.00675118 0.5 -7.17166 0.972044 -9.40395e-38
0.956082 0.0062066 0.5 -7.00285 0.954177 -2.19906e-22
0.959868 0.005685 0.5 -6.84731 0.936744 -1.94683e-18
0.963806 0.00514008 0.5 -6.68173 0.919037 3.65052e-18
0.967884 0.00457263 0.5 -6.47588 0.896969 -4.07905e-18
0.971729 0.00403453 0.5 -6.26198 0.871611 -4.61743e-18
0.97552 0.00350184 0.5 -6.0579 0.846222 -4.6888e-18
0.979458 0.0029459 0.5 -5.83139 0.820075 1.49995e-22
0.983267 0.00240536 0.5 -5.52617 0.781219 -2.80013e-18
0.98706 0.00186472 0.5 -5.3169 0.754982 -1.59367e-22
0.990882 0.00131704 0.5 -4.77323 0.683017 -6.10607e-18
0.994678 0.000770466 0.5 -4.9 0.70119 1.80757e-22
0.99832 0.00024378 0.5 -2.19317 0.798327 -3.68158e-21
0.00133235 0.00449653 0.5 -19.2503 -65.4367 8.58447e-40
0.00576479 0.0125392 0.5 -54.1662 -63.1532 -2.25695e-36
0.0127073 0.018847 0.5 -45.1656 -33.2195 -2.45163e-17
0.0207688 0.0238748 0.5 -34.79 -19.0465 -5.64585e-17
0.0291543 0.0279559 0.5 -28.1616 -12.4785 -7.99805e-21
0.037672 0.0313759 0.5 -23.8374 -8.92778 3.06772e-22
0.0464094 0.0343841 0.5 -20.673 -6.69802 4.29958e-17
0.0551576 0.0370177 0.5 -18.458 -5.26991 4.77325e-17
0.0639069 0.0393539 0.5 -16.6408 -4.2345 1.00859e-16
0.0727041 0.0414595 0.5 -15.2334 -3.4833 -5.21559e-17
0.081414 0.0433437 0.5 -14.06 -2.91268 2.75746e-17
0.090183 0.0450639 0.5 -13.0813 -2.46235 -2.70523e-17
0.098871 0.0466203 0.5 -12.2138 -2.09625 -1.06274e-21
0.107395 0.0480148 0.5 -11.4938 -1.80697 -8.80764e-22
0.116087 0.049318 0.5 -10.8519 -1.56094 8.66027e-22
0.124618 0.0504925 0.5 -10.2823 -1.35524 9.23331e-22
0.132994 0.0515502 0.5 -9.83044 -1.1913 2.96875e-17
0.141535 0.0525408 0.5 -9.43179 -1.04798 2.92247e-17
0.149928 0.053435 0.5 -9.10411 -0.927105 1.54358e-17
0.158135 0.0542362 0.5 -8.91397 -0.829884 -4.56484e-23
0.166435 0.0549791 0.5 -9.45268 -0.799348 -1.49618e-17
0.174718 0.0556571 0.5 -10.9798 -0.844298 -1.17549e-37
0.182824 0.0562624 0.5 -13.1634 -0.923421 -1.5072e-17
0.190865 0.0568083 0.5 -15.9792 -1.02233 -4.51912e-22
0.198976 0.0573076 0.5 -18.7785 -1.09052 8.60958e-42
0.20712 0.0577564 0.5 -20.5318 -1.05854 1.13012e-34
0.215524 0.0581602 0.5 -20.8896 -0.927061 -6.65948e-18
0.224086 0.0585239 0.5 -20.7875 -0.83552 -6.67019e-18
0.231971 0.0588335 0.5 -20.8731 -0.791409 7.68442e-18
0.239768 0.0591111 0.5 -21.3932 -0.719629 1.05996e-22
0.246955 0.0592927 0.5 -19.102 -0.277145 -1.78992e-22
0.00133235 -0.00449653 0.5 -19.2381 65.3876 3.00927e-36
0.00576479 -0.0125392 0.5 -53.8663 62.7817 -1.48889e-16
0.0127073 -0.018847 0.5 -44.6861 32.8526 4.72457e-17
0.0207688 -0.0238748 0.5 -34.6559 18.9594 2.87221e-17
0.0291543 -0.0279559 0.5 -28.0249 12.4098 1.18151e-33
0.037672 -0.0313759 0.5 -23.826 8.92283 8.17623e-39
0.0464094 -0.0343841 0.5 -20.7954 6.74089 1.46219e-38
0.0551576 -0.0370177 0.5 -18.4101 5.25096 9.0278e-36
0.0639069 -0.0393539 0.5 -16.6491 4.23565 -5.04435e-17
0.0727041 -0.0414595 0.5 -15.2603 3.48943 5.23084e-17
0.081414 -0.0433437 0.5 -14.0791 2.91525 -1.68254e-21
0.090183 -0.0450639 0.5 -13.0816 2.4609 5.4218e-17
0.098871 -0.0466203 0.5 -12.2193 2.09565 5.82613e-17
0.107395 -0.0480148 0.5 -11.4879 1.80491 2.88047e-17
0.116087 -0.049318 0.5 -10.8395 1.55834 -7.52316e-37
0.124618 -0.0504925 0.5 -10.2477 1.35025 -3.02406e-17
0.132994 -0.0515502 0.5 -9.77042 1.18344 -5.93016e-17
0.141535 -0.0525408 0.5 -9.32045 1.03477 -2.91708e-17
0.149928 -0.053435 0.5 -8.96185 0.912083 -9.39186e-22
0.158135 -0.0542362 0.5 -8.66138 0.809366 -1.52335e-17
0.166435 -0.0549791 0.5 -8.40923 0.718087 1.50154e-17
0.174718 -0.0556571 0.5 -8.39354 0.650794 4.61965e-22
0.182824 -0.0562624 0.5 -9.09493 0.637626 -9.40726e-22
0.190865 -0.0568083 0.5 -10.8458 0.689408 4.62346e-22
0.198976 -0.0573076 0.5 -13.493 0.777677 1.45534e-17
0.20712 -0.0577564 0.5 -16.6052 0.850892 -7.1579e-18
0.215524 -0.0581602 0.5 -18.9938 0.839718 6.63295e-18
0.224086 -0.0585239 0.5 -20.3189 0.815626 6.63237e-18
0.231971 -0.0588335 0.5 -21.015 0.796359 1.16728e-22
0.239768 -0.0591111 0.5 -21.7349 0.730059 -1.0299e-22
0.246955 -0.0592927 0.5 -19.4092 0.284132 2.39795e-18
0.253478 -0.0594229 0.5 -18.4362 0.461046 -3.0235e-23
0.260394 -0.0595984 0.5 -20.5933 0.520368 2.86484e-39
0.267845 -0.0597569 0.5 -20.3558 0.358508 2.08421e-22
0.275233 -0.059862 0.5 -19.1894 0.202915 -2.4811e-22
0.282135 -0.059923 0.5 -18.6709 0.14532 -2.27704e-22
0.289403 -0.0599678 0.5 -18.6514 0.0943614 2.15045e-22
0.296942 -0.0599937 0.5 -18.5688 0.0397909 -1.8938e-38
0.304465 -0.0599955 0.5 -18.4138 -0.0249056 4.77545e-39
0.311708 -0.0599711 0.5 -18.1386 -0.0910725 1.81259e-18
0.318744 -0.0599229 0.5 -17.8721 -0.143958 8.3754e-38
0.325783 -0.0598535 0.5 -17.6879 -0.194388 8.93376e-36
0.332827 -0.0597638 0.5 -17.5145 -0.241105 1.74352e-18
0.339871 -0.0596549 0.5 -17.3484 -0.284669 3.44497e-18
0.346848 -0.0595287 0.5 -17.1965 -0.32668 8.51818e-22
0.353736 -0.0593859 0.5 -17.039 -0.368814 -3.45375e-18
0.360596 -0.0592257 0.5 -16.8645 -0.407086 8.38033e-22
0.367453 -0.0590487 0.5 -16.7001 -0.442676 3.22145e-23
0.3743 -0.0588558 0.5 -16.5533 -0.476104 -3.3313e-18
0.381124 -0.0586486 0.5 -16.4332 -0.508094 8.12386e-22
0.38787 -0.0584289 0.5 -16.3073 -0.540584 6.64444e-18
0.394554 -0.0581963 0.5 -16.1585 -0.570724 -8.46356e-37
0.401228 -0.0579495 0.5 -16.0129 -0.598704 -6.49117e-18
0.407888 -0.0576896 0.5 -15.8827 -0.625208 7.88758e-22
0.41453 -0.0574175 0.5 -15.7653 -0.650163 -7.05297e-38
0.421133 -0.0571349 0.5 -15.6596 -0.674024 -3.15899e-18
0.427675 -0.0568427 0.5 -15.5453 -0.698904 -7.638e-22
0.434175 -0.0565398 0.5 -15.4148 -0.721383 7.65741e-22
0.440657 -0.0562259 0.5 -15.2934 -0.742605 -5.64237e-37
0.447118 -0.0559019 0.5 -15.1808 -0.762533 6.09528e-18
0.453553 -0.0555685 0.5 -15.0762 -0.781071 7.31208e-22
0.459952 -0.0552271 0.5 -14.9858 -0.799358 5.98814e-18
0.466305 -0.054878 0.5 -14.883 -0.818433 5.95405e-18
0.472621 -0.0545205 0.5 -14.765 -0.835451 -1.178e-17
0.478913 -0.0541543 0.5 -14.647 -0.85097 1.04654e-22
0.485178 -0.0537804 0.5 -14.5373 -0.865473 -5.76677e-18
0.491413 -0.0533994 0.5 -14.4389 -0.879412 5.70896e-18
0.497615 -0.0530121 0.5 -14.3533 -0.892964 -6.85367e-22
0.503783 -0.0526186 0.5 -14.2685 -0.907747 1.36792e-21
0.509921 -0.0522183 0.5 -14.1675 -0.921264 -1.10924e-17
0.51603 -0.0518112 0.5 -14.0632 -0.933097 5.48657e-18
0.522108 -0.0513982 0.5 -13.9682 -0.944533 1.08576e-17
0.528152 -0.05098 0.5 -13.882 -0.955452 5.37448e-18
0.534159 -0.0505573 0.5 -13.8048 -0.9659 6.44589e-22
0.54014 -0.0501296 0.5 -13.7373 -0.97694 -9.96115e-24
0.546102 -0.0496961 0.5 -13.6577 -0.988464 5.18889e-18
0.552038 -0.0492571 0.5 -13.5674 -0.997935 5.13433e-18
0.557939 -0.0488136 0.5 -13.4832 -1.00707 6.14842e-22
0.563803 -0.0483664 0.5 -13.4064 -1.01585 -1.22721e-21
0.569628 -0.047916 0.5 -13.3374 -1.02429 4.88623e-22
0.575412 -0.047463 0.5 -13.2788 -1.03277 -5.96481e-22
0.58119 -0.0470047 0.5 -13.219 -1.04194 -4.82126e-18
0.586964 -0.0465405 0.5 -13.1447 -1.05039 1.00928e-23
0.5927 -0.0460731 0.5 -13.0645 -1.05743 1.15172e-21
0.598397 -0.0456031 0.5 -12.9877 -1.0641 -4.66656e-18
0.604052 -0.045131 0.5 -12.9161 -1.07047 -4.61577e-18
0.609664 -0.0446572 0.5 -12.8494 -1.07656 8.93376e-37
0.615243 -0.0441814 0.5 -12.7896 -1.08271 1.78675e-36
0.620829 -0.0436999 0.5 -12.725 -1.08968 8.78361e-18
0.626413 -0.0432129 0.5 -12.6485 -1.09543 -2.25695e-36
0.631955 -0.0427242 0.5 -12.5711 -1.10036 -4.28907e-18
0.637454 -0.0422343 0.5 -12.4976 -1.10497 8.46356e-37
0.642907 -0.0417437 0.5 -12.4305 -1.10952 4.18751e-18
0.648313 -0.041253 0.5 -12.3675 -1.11373 -4.13947e-18
0.653694 -0.0407603 0.5 -12.3116 -1.11821 -1.30827e-22
0.659096 -0.0402614 0.5 -12.251 -1.12357 4.76136e-22
0.664496 -0.0397577 0.5 -12.1798 -1.12763 3.89066e-18
0.669852 -0.0392536 0.5 -12.1082 -1.1311 -3.83874e-18
0.675159 -0.0387495 0.5 -12.0402 -1.13441 -8.6221e-35
0.680418 -0.0382459 0.5 -11.977 -1.13764 -3.73504e-18
0.685626 -0.0377433 0.5 -11.917 -1.14063 3.08574e-22
0.690816 -0.0372389 0.5 -11.8629 -1.14396 -3.59008e-18
0.696038 -0.0367272 0.5 -11.8032 -1.14798 -4.23178e-37
0.701263 -0.0362109 0.5 -11.7336 -1.1507 5.33957e-34
0.706438 -0.0356954 0.5 -11.6643 -1.15296 3.36004e-18
0.711561 -0.035181 0.5 -11.5981 -1.15505 -3.30476e-18
0.716633 -0.0346682 0.5 -11.5362 -1.15708 -3.24933e-18
0.72165 -0.0341574 0.5 -11.4773 -1.1589 -3.19553e-18
0.726654 -0.0336446 0.5 -11.4236 -1.16111 3.08759e-18
0.731704 -0.0331235 0.5 -11.364 -1.16393 1.083e-23
0.736758 -0.032598 0.5 -11.2946 -1.16542 1.10918e-23
0.741759 -0.0320742 0.5 -11.2258 -1.16654 6.94225e-22
0.746705 -0.0315527 0.5 -11.1597 -1.16748 -6.7933e-22
0.751594 -0.0310337 0.5 -11.0979 -1.16841 6.64397e-22
0.756425 -0.0305178 0.5 -11.0391 -1.1692 -6.4951e-22
0.761255 -0.029999 0.5 -10.9846 -1.17039 3.1546e-22
0.766142 -0.0294707 0.5 -10.9238 -1.17208 2.41406e-18
0.771031 -0.0289385 0.5 -10.8541 -1.17247 -2.34677e-18
0.775861 -0.0284092 0.5 -10.785 -1.17257 -2.84048e-22
0.780632 -0.0278832 0.5 -10.7185 -1.17254 4.41685e-18
0.785341 -0.0273608 0.5 -10.6549 -1.17242 -2.13764e-18
0.789989 -0.0268423 0.5 -10.595 -1.17231 4.70198e-37
0.79466 -0.0263184 0.5 -10.5374 -1.17268 0
0.799401 -0.0257833 0.5 -10.4705 -1.17312 -9.40395e-38
0.804125 -0.0252465 0.5 -10.3955 -1.17216 1.72974e-18
0.808785 -0.0247137 0.5 -10.3225 -1.171 4.02428e-22
0.81338 -0.0241853 0.5 -10.2527 -1.16973 -1.56559e-18
0.817908 -0.0236617 0.5 -10.1858 -1.16828 -1.48017e-18
0.822369 -0.0231434 0.5 -10.1248 -1.1671 1.39416e-18
0.826908 -0.0226131 0.5 -10.0622 -1.16658 -1.55702e-22
0.831528 -0.0220701 0.5 -9.98663 -1.16527 2.25458e-18
0.836084 -0.0215313 0.5 -9.90606 -1.16275 -1.32748e-22
0.840568 -0.0209979 0.5 -9.82883 -1.16015 7.17465e-43
0.844979 -0.0204704 0.5 -9.75508 -1.15742 -9.38806e-23
0.849317 -0.0199491 0.5 -9.68515 -1.1546 9.55002e-23
0.853667 -0.0194238 0.5 -9.62021 -1.15236 -1.88915e-35
0.858113 -0.0188842 0.5 -9.54626 -1.15046 0
0.862564 -0.0183407 0.5 -9.46033 -1.14679 5.87747e-39
0.866936 -0.0178038 0.5 -9.37526 -1.14275 -2.20866e-19
0.871227 -0.0172741 0.5 -9.29384 -1.13867 2.35099e-38
0.875436 -0.016752 0.5 -9.21526 -1.1344 3.56243e-20
0.879628 -0.0162295 0.5 -9.14254 -1.13066 -1.67412e-19
0.88393 -0.0156905 0.5 -9.05994 -1.12727 2.91323e-19
0.88827 -0.0151435 0.5 -8.96283 -1.1219 2.93874e-38
0.892518 -0.014605 0.5 -8.86651 -1.11597 -8.10336e-23
0.896674 -0.0140755 0.5 -8.77446 -1.10988 1.83698e-22
0.900735 -0.0135557 0.5 -8.68709 -1.10367 -1.03195e-22
0.904824 -0.01303 0.5 -8.60536 -1.09819 1.03493e-18
0.909034 -0.0124858 0.5 -8.5086 -1.09261 2.32271e-18
0.913238 -0.0119394 0.5 -8.39599 -1.08441 1.65202e-22
0.917332 -0.0114042 0.5 -8.28713 -1.0759 1.55447e-18
0.921316 -0.010881 0.5 -8.18231 -1.06703 1.25226e-22
0.925241 -0.0103633 0.5 -8.08577 -1.05854 -1.23716e-22
0.929306 -0.00982488 0.5 -7.97812 -1.05036 1.97586e-18
0.933445 -0.00927338 0.5 -7.84758 -1.03939 -2.22126e-18
0.937451 -0.00873681 0.5 -7.71544 -1.02723 -2.48586e-18
0.941321 -0.00821597 0.5 -7.58773 -1.01467 2.76836e-18
0.945168 -0.00769601 0.5 -7.46719 -1.00252 -2.89568e-18
0.949167 -0.00715299 0.5 -7.32627 -0.989765 -2.93947e-18
0.953183 -0.00660441 0.5 -7.16017 -0.973132 3.28168e-18
0.957024 -0.006077 0.5 -6.99588 -0.955409 7.31058e-18
0.960743 -0.00556416 0.5 -6.84451 -0.938194 -1.88079e-37
0.964631 -0.00502557 0.5 -6.67411 -0.92038 -1.88079e-37
0.968598 -0.00447292 0.5 -6.465 -0.897299 -4.25413e-18
0.972318 -0.00395183 0.5 -6.25879 -0.872523 2.402e-18
0.976051 -0.00342699 0.5 -6.05618 -0.847342 1.47898e-22
0.979926 -0.00287974 0.5 -5.82614 -0.820622 -4.96615e-18
0.983612 -0.00235633 0.5 -5.52653 -0.782114 5.80712e-18
0.987331 -0.00182587 0.5 -5.32041 -0.75631 -5.4381e-18
0.991079 -0.00128868 0.5 -4.77579 -0.683913 1.11257e-23
0.994786 -0.000754822 0.5 -4.91298 -0.703407 6.25641e-18
0.998359 -0.000238135 0.5 -2.21164 -0.806204 -3.70144e-18
