/*--------------------------------*- C++ -*----------------------------------*\
  =========                 |
  \\      /  F ield         | OpenFOAM: The Open Source CFD Toolbox
   \\    /   O peration     | Website:  https://openfoam.org
    \\  /    A nd           | Version:  7
     \\/     M anipulation  |
\*---------------------------------------------------------------------------*/
FoamFile
{
    version     2.0;
    format      ascii;
    class       volScalarField;
    location    "1";
    object      p;
}
// * * * * * * * * * * * * * * * * * * * * * * * * * * * * * * * * * * * * * //

dimensions      [0 2 -2 0 0 0 0];

internalField   nonuniform List<scalar> 
108025
(
-0.222879
-0.221163
-0.220158
-0.219413
-0.218559
-0.217617
-0.216662
-0.215698
-0.214712
-0.213701
-0.212666
-0.211607
-0.210524
-0.209415
-0.208281
-0.20712
-0.205933
-0.204718
-0.203475
-0.202203
-0.200902
-0.199571
-0.19821
-0.196817
-0.195392
-0.193935
-0.192444
-0.190919
-0.189359
-0.187763
-0.186131
-0.184462
-0.182755
-0.181008
-0.179223
-0.177396
-0.175528
-0.173618
-0.171664
-0.169666
-0.167623
-0.165534
-0.163397
-0.161213
-0.158979
-0.156695
-0.154359
-0.151971
-0.149529
-0.147032
-0.14448
-0.14187
-0.139202
-0.136474
-0.133685
-0.130833
-0.127918
-0.124938
-0.121892
-0.118777
-0.115593
-0.112339
-0.109012
-0.10561
-0.102134
-0.0985796
-0.0949467
-0.0912331
-0.0874372
-0.083557
-0.0795909
-0.0755368
-0.071393
-0.0671574
-0.062828
-0.0584029
-0.0538799
-0.0492569
-0.0445317
-0.0397022
-0.034766
-0.0297209
-0.0245645
-0.0192944
-0.0139082
-0.00840343
-0.00277754
0.00297202
0.00884786
0.0148526
0.020989
0.0272596
0.0336674
0.0402149
0.0469051
0.0537407
0.0607246
0.0678596
0.0751486
0.0825945
0.0902
0.0979681
0.105902
0.114003
0.122275
0.130721
0.139343
0.148144
0.157126
0.166291
0.175642
0.185181
0.194909
0.204829
0.214942
0.225249
0.235751
0.246449
0.257343
0.268435
0.279723
0.291206
0.302885
0.314757
0.326821
0.339075
0.351514
0.364137
0.376939
0.389914
0.403059
0.416367
0.429831
0.443444
0.457198
0.471083
0.485091
0.499211
0.513431
0.52774
0.542124
0.55657
0.571064
0.585591
0.600134
0.614677
0.629203
0.643694
0.658131
0.672496
0.68677
0.700931
0.714962
0.72884
0.742547
0.756061
0.769362
0.78243
0.795246
0.807789
0.820041
0.831983
0.843598
0.854868
0.865779
0.876313
0.886459
0.896203
0.905532
0.914438
0.92291
0.930942
0.938526
0.945658
0.952334
0.958553
0.964313
0.969616
0.974462
0.978855
0.982799
0.986301
0.989365
0.992
0.994214
0.996017
0.997418
0.998428
0.99906
0.999325
0.999238
0.998815
0.998073
0.997034
0.995726
0.994187
0.99248
0.990698
0.9891
0.988032
0.98925
0.993543
0.634833
0.634947
0.634748
0.634399
0.63408
0.63379
0.633495
0.63319
0.632882
0.632571
0.632258
0.631941
0.631622
0.6313
0.630975
0.630648
0.630319
0.629988
0.629655
0.62932
0.628984
0.628647
0.628308
0.627969
0.62763
0.62729
0.626951
0.626612
0.626274
0.625937
0.625602
0.62527
0.624939
0.624612
0.624288
0.623968
0.623653
0.623343
0.623039
0.622741
0.62245
0.622167
0.621893
0.621627
0.621372
0.621128
0.620895
0.620675
0.620469
0.620278
0.620102
0.619943
0.619802
0.619679
0.619577
0.619497
0.619439
0.619406
0.619398
0.619417
0.619465
0.619542
0.619652
0.619795
0.619973
0.620188
0.620441
0.620735
0.621072
0.621453
0.621881
0.622358
0.622885
0.623466
0.624102
0.624796
0.62555
0.626367
0.627249
0.628199
0.62922
0.630313
0.631482
0.63273
0.634059
0.635473
0.636974
0.638564
0.640248
0.642028
0.643908
0.645889
0.647976
0.65017
0.652477
0.654897
0.657435
0.660094
0.662876
0.665785
0.668822
0.671992
0.675297
0.67874
0.682322
0.686047
0.689917
0.693935
0.698101
0.702419
0.706889
0.711513
0.716292
0.721228
0.72632
0.73157
0.736977
0.742541
0.748261
0.754136
0.760164
0.766345
0.772674
0.77915
0.785768
0.792526
0.799418
0.806439
0.813583
0.820845
0.828217
0.835691
0.84326
0.850915
0.858645
0.866441
0.874291
0.882185
0.89011
0.898054
0.906003
0.913943
0.921861
0.92974
0.937567
0.945325
0.953
0.960574
0.968031
0.975356
0.982533
0.989544
0.996375
1.00301
1.00943
1.01563
1.02159
1.02729
1.03273
1.03789
1.04276
1.04733
1.05159
1.05554
1.05916
1.06246
1.06543
1.06807
1.07036
1.07233
1.07396
1.07525
1.07622
1.07687
1.0772
1.07722
1.07693
1.07636
1.07549
1.07436
1.07296
1.0713
1.06941
1.06729
1.06495
1.0624
1.05967
1.05676
1.05367
1.05044
1.04707
1.04358
1.03998
1.03629
1.03255
1.02879
1.02506
1.02144
1.018
1.01481
1.01106
1.00564
-0.265193
-0.26369
-0.262756
-0.26205
-0.261254
-0.260381
-0.259493
-0.258595
-0.257676
-0.256732
-0.255764
-0.254774
-0.25376
-0.25272
-0.251656
-0.250566
-0.249449
-0.248305
-0.247134
-0.245933
-0.244704
-0.243445
-0.242156
-0.240835
-0.239482
-0.238096
-0.236676
-0.235222
-0.233733
-0.232208
-0.230645
-0.229045
-0.227405
-0.225726
-0.224006
-0.222244
-0.220439
-0.21859
-0.216696
-0.214755
-0.212768
-0.210731
-0.208645
-0.206508
-0.204319
-0.202075
-0.199777
-0.197423
-0.19501
-0.192538
-0.190005
-0.18741
-0.18475
-0.182025
-0.179233
-0.176371
-0.173438
-0.170432
-0.167352
-0.164194
-0.160959
-0.157642
-0.154242
-0.150757
-0.147185
-0.143523
-0.139769
-0.13592
-0.131975
-0.12793
-0.123782
-0.11953
-0.11517
-0.110699
-0.106115
-0.101415
-0.0965948
-0.0916521
-0.0865835
-0.0813857
-0.0760555
-0.0705893
-0.0649838
-0.0592353
-0.0533402
-0.0472949
-0.0410956
-0.0347384
-0.0282197
-0.0215354
-0.0146817
-0.00765447
-0.00044982
0.00693632
0.014508
0.0222692
0.0302241
0.0383766
0.0467308
0.0552906
0.0640599
0.0730426
0.0822424
0.091663
0.101308
0.11118
0.121284
0.131621
0.142195
0.153008
0.164063
0.175361
0.186905
0.198695
0.210733
0.223018
0.235551
0.248332
0.261359
0.274631
0.288146
0.3019
0.315891
0.330114
0.344563
0.359233
0.374118
0.389209
0.404498
0.419977
0.435634
0.451458
0.467437
0.483557
0.499805
0.516164
0.532619
0.549152
0.565745
0.582379
0.599033
0.615687
0.632318
0.648904
0.665422
0.681848
0.698157
0.714325
0.730327
0.746137
0.76173
0.77708
0.792163
0.806954
0.821427
0.83556
0.849329
0.862712
0.875687
0.888234
0.900335
0.911971
0.923127
0.933787
0.943938
0.95357
0.962672
0.971237
0.979258
0.986731
0.993655
1.00003
1.00585
1.01113
1.01586
1.02006
1.02372
1.02687
1.02951
1.03165
1.0333
1.03448
1.0352
1.03548
1.03532
1.03475
1.03378
1.03243
1.03072
1.02866
1.02627
1.02357
1.02059
1.01735
1.01387
1.01021
1.00641
1.00254
0.998725
0.995172
0.993012
0.994413
0.258619
0.259007
0.258983
0.25877
0.258602
0.258478
0.258351
0.258218
0.258086
0.257957
0.25783
0.257705
0.257583
0.257463
0.257347
0.257233
0.257124
0.257019
0.256918
0.256822
0.256731
0.256646
0.256568
0.256496
0.256431
0.256374
0.256325
0.256285
0.256255
0.256235
0.256226
0.256229
0.256244
0.256273
0.256315
0.256373
0.256446
0.256537
0.256645
0.256773
0.256921
0.25709
0.257281
0.257497
0.257737
0.258004
0.258299
0.258624
0.258979
0.259368
0.259791
0.26025
0.260747
0.261284
0.261863
0.262487
0.263156
0.263874
0.264644
0.265466
0.266344
0.26728
0.268278
0.26934
0.270468
0.271666
0.272937
0.274284
0.27571
0.277219
0.278814
0.280499
0.282278
0.284153
0.286131
0.288213
0.290405
0.29271
0.295134
0.29768
0.300352
0.303157
0.306098
0.30918
0.312408
0.315787
0.319323
0.323019
0.326883
0.330917
0.33513
0.339524
0.344106
0.348881
0.353855
0.359033
0.36442
0.370021
0.375842
0.381887
0.388163
0.394673
0.401423
0.408417
0.415659
0.423154
0.430905
0.438916
0.44719
0.455731
0.46454
0.47362
0.482972
0.492598
0.502497
0.51267
0.523116
0.533834
0.544821
0.556075
0.567591
0.579366
0.591393
0.603667
0.61618
0.628923
0.641887
0.655062
0.668435
0.681995
0.695727
0.709615
0.723645
0.737798
0.752056
0.766399
0.780807
0.795258
0.809729
0.824197
0.838636
0.853021
0.867327
0.881526
0.895591
0.909495
0.923209
0.936705
0.949955
0.962931
0.975606
0.987952
0.999942
1.01155
1.02275
1.03353
1.04385
1.05369
1.06304
1.07188
1.0802
1.08797
1.09518
1.10183
1.10791
1.11341
1.11832
1.12265
1.1264
1.12956
1.13215
1.13417
1.13562
1.13653
1.1369
1.13674
1.13607
1.13491
1.13327
1.13118
1.12865
1.12569
1.12234
1.11862
1.11453
1.11011
1.10537
1.10034
1.09503
1.08946
1.08366
1.07765
1.07145
1.06508
1.05858
1.05198
1.04531
1.03864
1.03196
1.02537
1.0176
1.0085
-0.407012
-0.405547
-0.404637
-0.40396
-0.403198
-0.402357
-0.4015
-0.400631
-0.39974
-0.398824
-0.397883
-0.396917
-0.395927
-0.39491
-0.393867
-0.392796
-0.391696
-0.390568
-0.38941
-0.388221
-0.387001
-0.385748
-0.384462
-0.383142
-0.381787
-0.380396
-0.378967
-0.377501
-0.375995
-0.374449
-0.372862
-0.371232
-0.369558
-0.367839
-0.366073
-0.36426
-0.362398
-0.360485
-0.35852
-0.356502
-0.354428
-0.352299
-0.35011
-0.347862
-0.345552
-0.343179
-0.34074
-0.338233
-0.335657
-0.33301
-0.330289
-0.327492
-0.324618
-0.321662
-0.318624
-0.315501
-0.31229
-0.308988
-0.305593
-0.302102
-0.298512
-0.29482
-0.291023
-0.287118
-0.283101
-0.278969
-0.274719
-0.270347
-0.26585
-0.261223
-0.256463
-0.251566
-0.246527
-0.241343
-0.236009
-0.230521
-0.224875
-0.219065
-0.213087
-0.206936
-0.200607
-0.194096
-0.187397
-0.180504
-0.173413
-0.166118
-0.158614
-0.150896
-0.142956
-0.134791
-0.126394
-0.11776
-0.108883
-0.0997571
-0.0903766
-0.0807359
-0.0708295
-0.0606519
-0.0501974
-0.0394609
-0.028437
-0.0171209
-0.00550759
0.00640747
0.0186286
0.0311599
0.0440051
0.0571675
0.07065
0.0844551
0.0985848
0.11304
0.127823
0.142933
0.158369
0.17413
0.190214
0.206619
0.223341
0.240374
0.257713
0.275351
0.293281
0.311493
0.329977
0.348721
0.367713
0.386939
0.406383
0.426028
0.445857
0.46585
0.485987
0.506244
0.526599
0.547026
0.567501
0.587995
0.60848
0.628928
0.649306
0.669585
0.689733
0.709716
0.729502
0.749057
0.768347
0.78734
0.806001
0.824297
0.842196
0.859666
0.876675
0.893194
0.909193
0.924645
0.939525
0.953808
0.967472
0.980496
0.992864
1.00456
1.01557
1.02588
1.03548
1.04437
1.05255
1.06001
1.06676
1.07279
1.07812
1.08275
1.08669
1.08996
1.09257
1.09454
1.09588
1.09661
1.09675
1.09633
1.09536
1.09387
1.09187
1.08939
1.08646
1.08309
1.07932
1.07515
1.07061
1.06573
1.06052
1.05501
1.04922
1.04317
1.0369
1.03042
1.02377
1.01699
1.01012
1.00331
0.997321
0.995289
-0.130528
-0.129794
-0.129529
-0.129482
-0.129375
-0.129211
-0.12904
-0.12887
-0.128692
-0.128502
-0.128301
-0.12809
-0.127867
-0.127633
-0.127386
-0.127126
-0.126852
-0.126564
-0.126261
-0.125943
-0.125608
-0.125256
-0.124886
-0.124497
-0.124089
-0.12366
-0.12321
-0.122737
-0.122241
-0.121721
-0.121175
-0.120602
-0.120001
-0.11937
-0.118709
-0.118016
-0.11729
-0.116529
-0.115731
-0.114895
-0.114019
-0.113102
-0.112141
-0.111135
-0.110081
-0.108978
-0.107824
-0.106616
-0.105351
-0.104028
-0.102644
-0.101197
-0.0996828
-0.0980996
-0.0964443
-0.0947139
-0.0929053
-0.0910151
-0.0890401
-0.0869768
-0.0848215
-0.0825706
-0.0802201
-0.0777661
-0.0752045
-0.072531
-0.0697413
-0.0668307
-0.0637947
-0.0606285
-0.057327
-0.0538853
-0.0502981
-0.04656
-0.0426655
-0.0386089
-0.0343846
-0.0299864
-0.0254084
-0.0206444
-0.015688
-0.0105329
-0.00517233
0.000400239
0.00619162
0.0122087
0.0184584
0.0249477
0.0316838
0.0386738
0.0459248
0.0534441
0.0612387
0.0693159
0.0776828
0.0863464
0.0953136
0.104591
0.114186
0.124105
0.134353
0.144937
0.155863
0.167136
0.178761
0.190743
0.203086
0.215793
0.228867
0.242311
0.256127
0.270316
0.284877
0.299811
0.315116
0.330789
0.346826
0.363224
0.379976
0.397075
0.414514
0.432282
0.450368
0.468761
0.487447
0.50641
0.525633
0.545099
0.564787
0.584676
0.604742
0.624962
0.645309
0.665756
0.686273
0.70683
0.727396
0.747937
0.76842
0.788809
0.809068
0.829161
0.84905
0.868697
0.888065
0.907115
0.92581
0.944111
0.961982
0.979386
0.996288
1.01265
1.02845
1.04364
1.05821
1.07211
1.08533
1.09785
1.10964
1.12068
1.13096
1.14047
1.14919
1.15712
1.16425
1.17059
1.17613
1.18089
1.18486
1.18805
1.19048
1.19217
1.19313
1.19337
1.19293
1.19181
1.19005
1.18767
1.1847
1.18116
1.17708
1.17249
1.16741
1.16187
1.15589
1.14952
1.14276
1.13565
1.1282
1.12045
1.11242
1.10412
1.09559
1.08683
1.07788
1.06876
1.0595
1.05012
1.0406
1.03111
1.02039
1.00927
-0.647734
-0.646171
-0.645169
-0.644415
-0.643573
-0.642646
-0.641698
-0.640735
-0.639746
-0.638727
-0.637679
-0.636602
-0.635495
-0.634357
-0.633187
-0.631983
-0.630746
-0.629474
-0.628165
-0.62682
-0.625436
-0.624013
-0.622549
-0.621044
-0.619495
-0.617902
-0.616264
-0.614578
-0.612843
-0.611059
-0.609223
-0.607333
-0.605389
-0.603387
-0.601328
-0.599208
-0.597026
-0.59478
-0.592468
-0.590087
-0.587636
-0.585113
-0.582514
-0.579839
-0.577083
-0.574245
-0.571322
-0.568311
-0.565209
-0.562014
-0.558723
-0.555332
-0.551838
-0.548237
-0.544528
-0.540704
-0.536765
-0.532704
-0.528519
-0.524206
-0.519759
-0.515176
-0.510452
-0.505582
-0.500561
-0.495385
-0.490048
-0.484547
-0.478874
-0.473026
-0.466997
-0.46078
-0.454371
-0.447763
-0.44095
-0.433926
-0.426684
-0.419219
-0.411523
-0.40359
-0.395413
-0.386985
-0.378299
-0.369348
-0.360124
-0.35062
-0.340829
-0.330743
-0.320355
-0.309657
-0.298643
-0.287303
-0.275631
-0.26362
-0.251262
-0.238551
-0.225478
-0.212038
-0.198223
-0.184028
-0.169447
-0.154473
-0.139101
-0.123327
-0.107147
-0.0905562
-0.0735518
-0.0561313
-0.0382928
-0.0200355
-0.00135906
0.0177357
0.0372471
0.0571722
0.0775074
0.0982473
0.119386
0.140915
0.162827
0.18511
0.207752
0.230741
0.254061
0.277695
0.301625
0.32583
0.35029
0.374981
0.399876
0.42495
0.450174
0.475516
0.500946
0.526429
0.551931
0.577415
0.602842
0.628175
0.653374
0.678396
0.703201
0.727746
0.75199
0.775888
0.799399
0.822479
0.845088
0.867182
0.888724
0.909672
0.929989
0.94964
0.968589
0.986805
1.00426
1.02092
1.03677
1.05177
1.06592
1.0792
1.09159
1.10308
1.11367
1.12335
1.13212
1.13999
1.14696
1.15304
1.15823
1.16256
1.16604
1.16869
1.17054
1.17159
1.17189
1.17145
1.1703
1.16847
1.166
1.1629
1.15921
1.15497
1.15019
1.14491
1.13916
1.13297
1.12636
1.11935
1.11198
1.10426
1.09622
1.08788
1.07926
1.07038
1.06126
1.05191
1.04236
1.03262
1.02268
1.0127
1.00297
0.997196
-0.554753
-0.553615
-0.552988
-0.552602
-0.552142
-0.551609
-0.55106
-0.550502
-0.549925
-0.549326
-0.548705
-0.548061
-0.547395
-0.546704
-0.545988
-0.545247
-0.544479
-0.543682
-0.542857
-0.542002
-0.541115
-0.540196
-0.539244
-0.538256
-0.537233
-0.536171
-0.535071
-0.53393
-0.532746
-0.531519
-0.530246
-0.528926
-0.527557
-0.526136
-0.524663
-0.523134
-0.521548
-0.519903
-0.518196
-0.516425
-0.514587
-0.512679
-0.5107
-0.508646
-0.506514
-0.504302
-0.502006
-0.499623
-0.497149
-0.494582
-0.491917
-0.489152
-0.486281
-0.483301
-0.480208
-0.476998
-0.473666
-0.470208
-0.466618
-0.462893
-0.459027
-0.455014
-0.45085
-0.446529
-0.442045
-0.437393
-0.432566
-0.427558
-0.422363
-0.416974
-0.411385
-0.405588
-0.399577
-0.393344
-0.386882
-0.380183
-0.37324
-0.366045
-0.358589
-0.350865
-0.342864
-0.334578
-0.325998
-0.317115
-0.307922
-0.298408
-0.288566
-0.278386
-0.26786
-0.256978
-0.245733
-0.234114
-0.222113
-0.209723
-0.196934
-0.183738
-0.170128
-0.156095
-0.141633
-0.126734
-0.111393
-0.095602
-0.0793571
-0.0626529
-0.0454853
-0.0278509
-0.00974688
0.0088284
0.0278758
0.0473952
0.0673853
0.0878436
0.108766
0.130149
0.151985
0.174266
0.196983
0.220125
0.24368
0.267633
0.291968
0.316667
0.34171
0.367075
0.39274
0.418677
0.44486
0.47126
0.497843
0.524579
0.55143
0.578361
0.605333
0.632305
0.659236
0.686083
0.712802
0.739347
0.765672
0.791731
0.817476
0.84286
0.867834
0.892353
0.916368
0.939835
0.962706
0.98494
1.00649
1.02732
1.0474
1.06667
1.08511
1.1027
1.11939
1.13516
1.15
1.16387
1.17678
1.1887
1.19962
1.20954
1.21847
1.22639
1.23331
1.23925
1.24422
1.24823
1.25129
1.25343
1.25468
1.25505
1.25457
1.25328
1.25119
1.24836
1.2448
1.24055
1.23565
1.23013
1.22402
1.21736
1.21018
1.20251
1.19438
1.18583
1.17688
1.16756
1.1579
1.14792
1.13763
1.12707
1.11625
1.10518
1.09389
1.08239
1.07068
1.05879
1.04667
1.03455
1.02132
1.00888
-0.988262
-0.986452
-0.985217
-0.984247
-0.983182
-0.982021
-0.980829
-0.979616
-0.978369
-0.977084
-0.97576
-0.974398
-0.972997
-0.971555
-0.970071
-0.968543
-0.96697
-0.965352
-0.963685
-0.961969
-0.960203
-0.958384
-0.956512
-0.954584
-0.952598
-0.950553
-0.948447
-0.946277
-0.944043
-0.941741
-0.939369
-0.936926
-0.934409
-0.931816
-0.929144
-0.92639
-0.923551
-0.920626
-0.917611
-0.914504
-0.9113
-0.907997
-0.904593
-0.901082
-0.897462
-0.89373
-0.889881
-0.885912
-0.881818
-0.877596
-0.873241
-0.868749
-0.864115
-0.859335
-0.854404
-0.849316
-0.844067
-0.838652
-0.833064
-0.827299
-0.82135
-0.815211
-0.808877
-0.802341
-0.795596
-0.788637
-0.781455
-0.774044
-0.766397
-0.758506
-0.750364
-0.741963
-0.733295
-0.724352
-0.715126
-0.705608
-0.69579
-0.685664
-0.675219
-0.664449
-0.653342
-0.64189
-0.630085
-0.617916
-0.605374
-0.59245
-0.579134
-0.565417
-0.55129
-0.536743
-0.521767
-0.506354
-0.490494
-0.474179
-0.4574
-0.44015
-0.42242
-0.404204
-0.385495
-0.366286
-0.346571
-0.326347
-0.305608
-0.284351
-0.262573
-0.240274
-0.217451
-0.194106
-0.17024
-0.145856
-0.120958
-0.0955521
-0.0696454
-0.0432466
-0.016366
0.0109841
0.0387898
0.0670352
0.0957025
0.124772
0.154222
0.184028
0.214165
0.244603
0.275314
0.306265
0.33742
0.368744
0.400198
0.431742
0.463332
0.494926
0.526477
0.557938
0.589261
0.620395
0.65129
0.681895
0.712157
0.742024
0.771445
0.800365
0.828735
0.856503
0.883619
0.910034
0.935701
0.960575
0.984614
1.00778
1.03002
1.05132
1.07163
1.09094
1.1092
1.12641
1.14254
1.15757
1.17151
1.18433
1.19604
1.20664
1.21613
1.22452
1.23182
1.23804
1.24321
1.24735
1.25047
1.25261
1.25379
1.25405
1.25341
1.25192
1.2496
1.2465
1.24265
1.23808
1.23285
1.22697
1.22049
1.21345
1.20588
1.19781
1.18928
1.18032
1.17096
1.16122
1.15112
1.1407
1.12997
1.11895
1.10766
1.09611
1.08431
1.07227
1.06
1.0475
1.03474
1.02188
1.0088
0.999574
-1.03509
-1.03345
-1.03237
-1.03154
-1.03063
-1.02963
-1.02859
-1.02754
-1.02645
-1.02533
-1.02416
-1.02296
-1.02173
-1.02045
-1.01913
-1.01777
-1.01636
-1.01491
-1.01341
-1.01186
-1.01026
-1.0086
-1.00689
-1.00513
-1.00331
-1.00142
-0.999474
-0.997462
-0.995382
-0.993232
-0.991011
-0.988714
-0.986339
-0.983884
-0.981346
-0.978721
-0.976007
-0.9732
-0.970297
-0.967295
-0.964189
-0.960977
-0.957654
-0.954216
-0.95066
-0.94698
-0.943173
-0.939234
-0.935158
-0.93094
-0.926575
-0.922059
-0.917385
-0.912548
-0.907542
-0.902361
-0.897
-0.891451
-0.885708
-0.879765
-0.873615
-0.86725
-0.860663
-0.853847
-0.846794
-0.839496
-0.831944
-0.824131
-0.816047
-0.807685
-0.799035
-0.790088
-0.780834
-0.771265
-0.761369
-0.751139
-0.740562
-0.72963
-0.718332
-0.706658
-0.694596
-0.682137
-0.66927
-0.655983
-0.642267
-0.628111
-0.613504
-0.598434
-0.582893
-0.56687
-0.550354
-0.533335
-0.515805
-0.497753
-0.479172
-0.460052
-0.440386
-0.420166
-0.399386
-0.37804
-0.356123
-0.333631
-0.31056
-0.286908
-0.262675
-0.237859
-0.212463
-0.186489
-0.159942
-0.132827
-0.105153
-0.0769275
-0.0481627
-0.0188713
0.0109315
0.0412288
0.0720013
0.103228
0.134884
0.166944
0.19938
0.232162
0.265255
0.298625
0.332235
0.366044
0.40001
0.434088
0.468234
0.502398
0.536529
0.570578
0.604489
0.638209
0.671683
0.704853
0.737663
0.770054
0.801971
0.833355
0.864149
0.894297
0.923745
0.952439
0.980327
1.00736
1.03349
1.05867
1.08285
1.10601
1.1281
1.14909
1.16896
1.18767
1.20521
1.22156
1.23671
1.25064
1.26336
1.27486
1.28515
1.29423
1.30212
1.30884
1.31439
1.3188
1.32211
1.32433
1.32549
1.32564
1.3248
1.32302
1.32032
1.31675
1.31236
1.30718
1.30125
1.29461
1.28731
1.27938
1.27088
1.26182
1.25226
1.24222
1.23174
1.22085
1.20959
1.19797
1.18602
1.17377
1.16124
1.14843
1.13537
1.12206
1.10851
1.09473
1.08071
1.06648
1.05194
1.03738
1.02181
1.00814
-1.43272
-1.43048
-1.42884
-1.42749
-1.42603
-1.42445
-1.42283
-1.42118
-1.41948
-1.41773
-1.41592
-1.41407
-1.41215
-1.41019
-1.40816
-1.40607
-1.40392
-1.40171
-1.39943
-1.39708
-1.39466
-1.39217
-1.3896
-1.38696
-1.38424
-1.38143
-1.37854
-1.37556
-1.37249
-1.36932
-1.36606
-1.3627
-1.35924
-1.35566
-1.35198
-1.34818
-1.34427
-1.34023
-1.33607
-1.33178
-1.32736
-1.32279
-1.31808
-1.31323
-1.30822
-1.30305
-1.29772
-1.29222
-1.28655
-1.28069
-1.27465
-1.26842
-1.26199
-1.25536
-1.24851
-1.24144
-1.23415
-1.22663
-1.21886
-1.21085
-1.20258
-1.19404
-1.18523
-1.17614
-1.16676
-1.15708
-1.14709
-1.13678
-1.12614
-1.11517
-1.10384
-1.09216
-1.08011
-1.06768
-1.05486
-1.04164
-1.02801
-1.01395
-0.999454
-0.984515
-0.969118
-0.953251
-0.936903
-0.920064
-0.90272
-0.884862
-0.866477
-0.847555
-0.828085
-0.808056
-0.787459
-0.766284
-0.74452
-0.72216
-0.699195
-0.675617
-0.651419
-0.626596
-0.601142
-0.575053
-0.548325
-0.520956
-0.492946
-0.464295
-0.435004
-0.405078
-0.374521
-0.34334
-0.311543
-0.279141
-0.246147
-0.212575
-0.178441
-0.143764
-0.108567
-0.0728725
-0.0367067
-9.83442e-05
0.0369214
0.0743187
0.112057
0.150098
0.188401
0.22692
0.265611
0.304424
0.343309
0.382213
0.42108
0.459855
0.498478
0.536891
0.575033
0.612841
0.650253
0.687206
0.723638
0.759485
0.794686
0.829179
0.862903
0.895801
0.927815
0.958891
0.988977
1.01802
1.04598
1.07281
1.09847
1.12293
1.14615
1.1681
1.18877
1.20813
1.22618
1.24289
1.25826
1.2723
1.285
1.29638
1.30644
1.31521
1.3227
1.32893
1.33394
1.33774
1.34038
1.34189
1.34231
1.34167
1.34003
1.33741
1.33387
1.32945
1.32419
1.31815
1.31136
1.30386
1.29571
1.28695
1.27761
1.26774
1.25737
1.24655
1.2353
1.22365
1.21164
1.1993
1.18663
1.17367
1.16044
1.14693
1.13318
1.11917
1.10492
1.09043
1.07568
1.06069
1.04538
1.02997
1.01399
1.00184
-1.59216
-1.58988
-1.58819
-1.58678
-1.58527
-1.58364
-1.58196
-1.58024
-1.57847
-1.57665
-1.57476
-1.57282
-1.57082
-1.56876
-1.56664
-1.56445
-1.56219
-1.55985
-1.55745
-1.55497
-1.55242
-1.54978
-1.54706
-1.54425
-1.54136
-1.53837
-1.53528
-1.5321
-1.52882
-1.52543
-1.52193
-1.51832
-1.5146
-1.51075
-1.50678
-1.50268
-1.49844
-1.49407
-1.48955
-1.48489
-1.48008
-1.4751
-1.46996
-1.46466
-1.45918
-1.45351
-1.44766
-1.44162
-1.43538
-1.42893
-1.42226
-1.41538
-1.40826
-1.40091
-1.39331
-1.38547
-1.37736
-1.36898
-1.36032
-1.35137
-1.34213
-1.33258
-1.32271
-1.31252
-1.30199
-1.29111
-1.27988
-1.26827
-1.25628
-1.24391
-1.23112
-1.21792
-1.2043
-1.19023
-1.17571
-1.16073
-1.14527
-1.12931
-1.11286
-1.09589
-1.07839
-1.06034
-1.04175
-1.02258
-1.00284
-0.982508
-0.96157
-0.940017
-0.917837
-0.89502
-0.871554
-0.84743
-0.822639
-0.797172
-0.771021
-0.74418
-0.716642
-0.688403
-0.659458
-0.629807
-0.599446
-0.568377
-0.536602
-0.504125
-0.470949
-0.437084
-0.402538
-0.367323
-0.331452
-0.29494
-0.257807
-0.220073
-0.181761
-0.142898
-0.103511
-0.0636322
-0.0232957
0.0174616
0.0586001
0.100077
0.141848
0.183864
0.226076
0.268429
0.310868
0.353336
0.395772
0.438115
0.480301
0.522264
0.563939
0.605257
0.64615
0.68655
0.726388
0.765595
0.804104
0.841847
0.878759
0.914775
0.949834
0.983876
1.01684
1.04868
1.07934
1.10878
1.13695
1.1638
1.18932
1.21346
1.2362
1.25752
1.27741
1.29585
1.31283
1.32836
1.34244
1.35508
1.36628
1.37607
1.38447
1.39149
1.39718
1.40156
1.40467
1.40654
1.40722
1.40674
1.40516
1.40252
1.39886
1.39424
1.3887
1.38229
1.37506
1.36707
1.35835
1.34896
1.33894
1.32834
1.31719
1.30554
1.29344
1.2809
1.26798
1.25469
1.24107
1.22714
1.21293
1.19845
1.18371
1.16873
1.15352
1.13807
1.12239
1.10647
1.0903
1.07388
1.05712
1.04032
1.02252
1.00753
-1.98926
-1.98637
-1.98411
-1.98216
-1.98008
-1.97786
-1.97558
-1.97324
-1.97084
-1.96837
-1.96582
-1.9632
-1.9605
-1.95772
-1.95485
-1.95191
-1.94887
-1.94574
-1.94252
-1.93921
-1.93579
-1.93227
-1.92864
-1.92491
-1.92106
-1.91709
-1.91301
-1.9088
-1.90446
-1.89998
-1.89537
-1.89062
-1.88572
-1.88067
-1.87547
-1.8701
-1.86457
-1.85886
-1.85298
-1.84691
-1.84066
-1.8342
-1.82755
-1.82069
-1.81361
-1.8063
-1.79877
-1.791
-1.78299
-1.77472
-1.76619
-1.75738
-1.7483
-1.73894
-1.72927
-1.7193
-1.70901
-1.6984
-1.68745
-1.67615
-1.6645
-1.65247
-1.64007
-1.62727
-1.61407
-1.60046
-1.58642
-1.57193
-1.557
-1.5416
-1.52572
-1.50935
-1.49247
-1.47507
-1.45715
-1.43867
-1.41963
-1.40002
-1.37983
-1.35903
-1.33761
-1.31557
-1.29288
-1.26954
-1.24553
-1.22084
-1.19546
-1.16937
-1.14256
-1.11503
-1.08676
-1.05775
-1.02798
-0.997449
-0.966153
-0.934085
-0.901242
-0.867621
-0.83322
-0.798042
-0.762088
-0.725363
-0.687872
-0.649625
-0.610632
-0.570906
-0.530462
-0.489317
-0.447492
-0.40501
-0.361897
-0.318182
-0.273895
-0.229073
-0.183752
-0.137973
-0.0917799
-0.0452192
0.00165919
0.0488028
0.0961559
0.14366
0.191255
0.238877
0.286461
0.333938
0.381238
0.428291
0.475024
0.521363
0.567233
0.61256
0.657268
0.701283
0.74453
0.786937
0.828431
0.868944
0.908408
0.946756
0.983929
1.01987
1.05451
1.08782
1.11973
1.15022
1.17924
1.20675
1.23274
1.25717
1.28003
1.30131
1.32101
1.33911
1.35563
1.37056
1.38394
1.39576
1.40607
1.41487
1.42221
1.42812
1.43263
1.43579
1.43764
1.43823
1.4376
1.43581
1.4329
1.42893
1.42395
1.41801
1.41118
1.40349
1.395
1.38577
1.37585
1.36528
1.3541
1.34238
1.33015
1.31744
1.30431
1.29078
1.27689
1.26267
1.24814
1.23333
1.21826
1.20294
1.18739
1.17161
1.1556
1.13937
1.1229
1.1062
1.08923
1.07201
1.05442
1.03675
1.01826
1.00371
-2.24651
-2.24336
-2.24084
-2.23864
-2.2363
-2.23381
-2.23125
-2.22862
-2.22592
-2.22314
-2.22027
-2.21732
-2.21428
-2.21114
-2.20792
-2.20459
-2.20116
-2.19763
-2.19399
-2.19024
-2.18637
-2.18238
-2.17828
-2.17404
-2.16968
-2.16518
-2.16054
-2.15575
-2.15082
-2.14573
-2.14048
-2.13507
-2.12949
-2.12373
-2.11779
-2.11167
-2.10535
-2.09882
-2.0921
-2.08516
-2.07799
-2.0706
-2.06298
-2.05511
-2.04698
-2.0386
-2.02995
-2.02102
-2.01181
-2.0023
-1.99248
-1.98235
-1.97189
-1.9611
-1.94995
-1.93846
-1.92659
-1.91434
-1.90169
-1.88865
-1.87518
-1.86129
-1.84695
-1.83215
-1.81689
-1.80114
-1.78489
-1.76813
-1.75084
-1.73301
-1.71463
-1.69567
-1.67613
-1.65599
-1.63523
-1.61384
-1.5918
-1.56911
-1.54573
-1.52166
-1.49688
-1.47139
-1.44515
-1.41817
-1.39043
-1.36191
-1.3326
-1.30249
-1.27157
-1.23983
-1.20727
-1.17386
-1.13961
-1.10452
-1.06857
-1.03176
-0.994103
-0.955586
-0.916218
-0.876001
-0.834944
-0.793056
-0.750347
-0.706834
-0.662531
-0.617459
-0.57164
-0.5251
-0.477867
-0.429972
-0.381451
-0.332341
-0.282683
-0.232523
-0.181908
-0.130889
-0.0795204
-0.0278606
0.0240299
0.0760873
0.128245
0.180434
0.232582
0.284614
0.336456
0.388029
0.439253
0.490048
0.540332
0.590025
0.639044
0.687307
0.734734
0.781246
0.826764
0.871213
0.914518
0.95661
0.997421
1.03689
1.07495
1.11155
1.14664
1.18017
1.21211
1.24241
1.27105
1.298
1.32324
1.34676
1.36856
1.38863
1.40697
1.4236
1.43853
1.45177
1.46336
1.47333
1.4817
1.48851
1.49381
1.49764
1.50005
1.50108
1.50079
1.49923
1.49646
1.49253
1.48751
1.48144
1.47439
1.46642
1.45758
1.44792
1.43751
1.42639
1.41462
1.40225
1.38932
1.37589
1.362
1.34768
1.33297
1.31792
1.30255
1.28688
1.27095
1.25478
1.23837
1.22175
1.20493
1.1879
1.17067
1.15323
1.13557
1.11768
1.09953
1.08112
1.06233
1.04348
1.0236
1.00722
-2.66997
-2.66614
-2.66296
-2.66013
-2.65714
-2.65397
-2.65071
-2.64737
-2.64394
-2.64041
-2.63677
-2.63302
-2.62916
-2.62519
-2.6211
-2.61689
-2.61256
-2.60809
-2.6035
-2.59876
-2.59389
-2.58886
-2.58369
-2.57836
-2.57287
-2.56721
-2.56139
-2.55538
-2.5492
-2.54282
-2.53625
-2.52948
-2.5225
-2.51531
-2.5079
-2.50026
-2.49238
-2.48426
-2.47589
-2.46726
-2.45836
-2.44919
-2.43973
-2.42998
-2.41992
-2.40955
-2.39886
-2.38783
-2.37646
-2.36473
-2.35264
-2.34017
-2.32731
-2.31405
-2.30037
-2.28627
-2.27173
-2.25673
-2.24127
-2.22532
-2.20889
-2.19194
-2.17447
-2.15645
-2.13789
-2.11875
-2.09903
-2.07871
-2.05777
-2.03619
-2.01397
-1.99108
-1.9675
-1.94323
-1.91824
-1.89252
-1.86605
-1.83881
-1.8108
-1.78198
-1.75236
-1.72191
-1.69062
-1.65847
-1.62546
-1.59156
-1.55678
-1.52109
-1.48449
-1.44697
-1.40853
-1.36915
-1.32884
-1.28759
-1.2454
-1.20228
-1.15822
-1.11323
-1.06732
-1.02051
-0.972795
-0.924203
-0.874749
-0.824457
-0.773349
-0.721456
-0.668808
-0.61544
-0.561391
-0.506703
-0.451421
-0.395594
-0.339275
-0.282521
-0.225391
-0.167948
-0.11026
-0.0523967
0.00556967
0.0635627
0.121504
0.179312
0.236903
0.294193
0.351095
0.407521
0.463382
0.518588
0.573052
0.626683
0.679394
0.731099
0.781713
0.831152
0.879338
0.926194
0.971646
1.01563
1.05807
1.09891
1.1381
1.17559
1.21134
1.2453
1.27744
1.30774
1.33617
1.36274
1.38741
1.41021
1.43112
1.45016
1.46735
1.48271
1.49626
1.50804
1.51809
1.52644
1.53314
1.53824
1.54178
1.54383
1.54445
1.54368
1.54158
1.53823
1.53368
1.528
1.52124
1.51347
1.50476
1.49515
1.48472
1.47352
1.4616
1.44903
1.43586
1.42213
1.40789
1.3932
1.37808
1.3626
1.34676
1.33063
1.31421
1.29754
1.28064
1.26354
1.24623
1.22874
1.21106
1.19321
1.17516
1.15692
1.13847
1.11979
1.10085
1.08164
1.06203
1.04234
1.02166
1.00514
-3.01907
-3.01474
-3.01108
-3.00776
-3.00428
-3.0006
-2.99682
-2.99294
-2.98895
-2.98484
-2.9806
-2.97624
-2.97176
-2.96713
-2.96237
-2.95747
-2.95242
-2.94723
-2.94187
-2.93635
-2.93067
-2.92482
-2.91879
-2.91257
-2.90617
-2.89957
-2.89277
-2.88577
-2.87855
-2.87111
-2.86344
-2.85553
-2.84738
-2.83898
-2.83032
-2.82139
-2.81218
-2.80269
-2.7929
-2.78281
-2.77241
-2.76168
-2.75062
-2.73921
-2.72744
-2.71531
-2.70279
-2.68989
-2.67658
-2.66285
-2.6487
-2.6341
-2.61905
-2.60352
-2.58751
-2.571
-2.55398
-2.53643
-2.51833
-2.49967
-2.48043
-2.4606
-2.44016
-2.41909
-2.39738
-2.375
-2.35195
-2.32819
-2.30373
-2.27852
-2.25257
-2.22584
-2.19833
-2.17002
-2.14088
-2.11089
-2.08006
-2.04834
-2.01573
-1.98222
-1.94778
-1.9124
-1.87607
-1.83878
-1.80051
-1.76124
-1.72098
-1.67971
-1.63742
-1.59411
-1.54978
-1.50441
-1.45802
-1.41061
-1.36217
-1.31271
-1.26225
-1.2108
-1.15836
-1.10496
-1.05062
-0.995369
-0.939225
-0.882222
-0.824396
-0.765785
-0.706431
-0.646382
-0.585686
-0.524398
-0.462576
-0.400281
-0.337579
-0.27454
-0.211237
-0.147746
-0.0841474
-0.020524
0.043038
0.10645
0.169621
0.232459
0.294867
0.356752
0.418015
0.47856
0.538289
0.597106
0.654915
0.711623
0.767136
0.821366
0.874226
0.925632
0.975505
1.02377
1.07036
1.1152
1.15825
1.19943
1.23872
1.27606
1.31142
1.34478
1.37611
1.4054
1.43263
1.45782
1.48097
1.50208
1.52119
1.5383
1.55345
1.56668
1.57803
1.58753
1.59525
1.60123
1.60553
1.60821
1.60932
1.60894
1.60713
1.60395
1.59947
1.59377
1.5869
1.57894
1.56995
1.56
1.54915
1.53747
1.52503
1.51187
1.49805
1.48365
1.46869
1.45325
1.43735
1.42106
1.4044
1.38743
1.37016
1.35264
1.3349
1.31694
1.2988
1.28049
1.26203
1.24341
1.22464
1.20571
1.18663
1.16736
1.1479
1.12822
1.10827
1.08807
1.06744
1.04675
1.02496
1.00719
-3.49038
-3.48522
-3.48074
-3.47663
-3.47233
-3.4678
-3.46314
-3.45836
-3.45345
-3.44839
-3.44318
-3.43783
-3.43231
-3.42663
-3.42079
-3.41477
-3.40857
-3.4022
-3.39563
-3.38887
-3.38191
-3.37474
-3.36735
-3.35975
-3.35192
-3.34385