/*--------------------------------*- C++ -*----------------------------------*\
  =========                 |
  \\      /  F ield         | OpenFOAM: The Open Source CFD Toolbox
   \\    /   O peration     | Website:  https://openfoam.org
    \\  /    A nd           | Version:  7
     \\/     M anipulation  |
\*---------------------------------------------------------------------------*/
FoamFile
{
    version     2.0;
    format      ascii;
    class       surfaceScalarField;
    location    "1";
    object      phi;
}
// * * * * * * * * * * * * * * * * * * * * * * * * * * * * * * * * * * * * * //

dimensions      [0 3 -1 0 0 0 0];

internalField   nonuniform List<scalar> 
215362
(
37.6038
3.54179e-05
-37.6038
37.6038
3.63554e-05
37.6038
3.72373e-05
37.6038
3.81424e-05
37.6038
3.90709e-05
37.6038
4.01014e-05
37.6038
4.10791e-05
37.6038
4.20823e-05
37.6037
4.31897e-05
37.6037
4.42465e-05
37.6037
4.53311e-05
37.6037
4.64443e-05
37.6037
4.7665e-05
37.6037
4.88381e-05
37.6037
5.00426e-05
37.6037
5.1357e-05
37.6037
5.26267e-05
37.6037
5.39305e-05
37.6037
5.52694e-05
37.6037
5.67223e-05
37.6037
5.82124e-05
37.6037
5.9663e-05
37.6036
6.1153e-05
37.6036
6.26838e-05
37.6036
6.43342e-05
37.6036
6.59501e-05
37.6036
6.76882e-05
37.6036
6.93943e-05
37.6036
7.12255e-05
37.6036
7.30277e-05
37.6036
7.488e-05
37.6036
7.6862e-05
37.6036
7.88973e-05
37.6035
8.09099e-05
37.6035
8.29794e-05
37.6035
8.51852e-05
37.6035
8.74515e-05
37.6035
8.97024e-05
37.6035
9.20955e-05
37.6035
9.44772e-05
37.6035
9.70053e-05
37.6034
9.95265e-05
37.6034
0.000102198
37.6034
0.000104946
37.6034
0.000107694
37.6034
0.0001106
37.6034
0.000113589
37.6034
0.000116664
37.6034
0.00011975
37.6033
0.000123005
37.6033
0.000126277
37.6033
0.000129803
37.6033
0.000133275
37.6033
0.000136929
37.6033
0.000140613
37.6032
0.000144565
37.6032
0.000148554
37.6032
0.000152585
37.6032
0.000156817
37.6032
0.000161256
37.6031
0.00016567
37.6031
0.000170299
37.6031
0.00017507
37.6031
0.000179986
37.6031
0.000185132
37.603
0.000190279
37.603
0.000195743
37.603
0.000201219
37.603
0.000207023
37.603
0.00021293
37.6029
0.000219021
37.6029
0.000225304
37.6029
0.000231864
37.6029
0.00023855
37.6028
0.000245527
37.6028
0.000252568
37.6028
0.000259991
37.6027
0.000267649
37.6027
0.000275472
37.6027
0.000283624
37.6027
0.000291958
37.6026
0.000300559
37.6026
0.000309594
37.6026
0.000318759
37.6025
0.000328221
37.6025
0.000338144
37.6025
0.000348227
37.6024
0.000358714
37.6024
0.000369537
37.6023
0.000380708
37.6023
0.000392237
37.6023
0.000404136
37.6022
0.000416416
37.6022
0.000429089
37.6021
0.000442166
37.6021
0.00045566
37.6021
0.000469661
37.602
0.000484025
37.602
0.000498921
37.6019
0.000514206
37.6019
0.00052997
37.6018
0.000546304
37.6018
0.000563143
37.6017
0.000580422
37.6017
0.000598309
37.6016
0.000616739
37.6016
0.000635725
37.6015
0.000655278
37.6015
0.000675334
37.6014
0.000696137
37.6013
0.000717544
37.6013
0.000739409
37.6012
0.000762053
37.6011
0.000785255
37.6011
0.000809177
37.601
0.000833674
37.6009
0.000858908
37.6009
0.000884808
37.6008
0.000911379
37.6007
0.000938626
37.6006
0.000966474
37.6006
0.000995158
37.6005
0.00102445
37.6004
0.00105449
37.6003
0.00108513
37.6002
0.00111652
37.6002
0.0011485
37.6001
0.00118121
37.6
0.00121456
37.5999
0.00124854
37.5998
0.00128322
37.5997
0.00131833
37.5996
0.00135424
37.5995
0.00139048
37.5994
0.00142746
37.5993
0.00146478
37.5992
0.00150263
37.5991
0.0015409
37.599
0.00157963
37.5989
0.00161861
37.5988
0.00165789
37.5987
0.00169756
37.5985
0.00173726
37.5984
0.00177725
37.5983
0.00181716
37.5982
0.00185723
37.5981
0.00189725
37.598
0.00193715
37.5978
0.00197678
37.5977
0.0020163
37.5976
0.00205542
37.5975
0.00209419
37.5973
0.00213241
37.5972
0.00217022
37.5971
0.00220723
37.597
0.00224376
37.5969
0.00227934
37.5967
0.00231413
37.5966
0.00234797
37.5965
0.0023808
37.5964
0.00241262
37.5962
0.00244337
37.5961
0.00247275
37.596
0.00250102
37.5959
0.00252789
37.5957
0.00255355
37.5956
0.00257773
37.5955
0.00260054
37.5954
0.00262188
37.5953
0.00264175
37.5951
0.00266013
37.595
0.00267717
37.5949
0.00269259
37.5948
0.0027068
37.5947
0.00271943
37.5946
0.00273086
37.5945
0.0027409
37.5944
0.00274987
37.5943
0.00275762
37.5942
0.00276442
37.5941
0.00277037
37.594
0.00277547
37.5939
0.00278002
37.5938
0.00278419
37.5937
0.0027881
37.5936
0.00279195
37.5935
0.00279615
37.5934
0.00280069
37.5933
0.00280602
37.5932
0.00281244
37.5931
0.00282019
37.593
0.00282962
37.5929
0.00284117
37.5928
0.00285532
37.5928
0.00287216
37.5927
0.00289249
37.5926
0.00291647
37.5925
0.00294466
37.5924
0.00297816
37.5923
0.00301794
37.5922
0.00307573
0.00315359
35.8012
3.40047e-05
-35.8012
35.8012
3.49079e-05
35.8012
3.58348e-05
35.8012
3.67072e-05
35.8012
3.76031e-05
35.8012
3.8601e-05
35.8012
3.95463e-05
35.8012
4.05952e-05
35.8012
4.15929e-05
35.8012
4.26958e-05
35.8012
4.38269e-05
35.8012
4.49093e-05
35.8012
4.60217e-05
35.8012
4.72428e-05
35.8012
4.84957e-05
35.8013
4.97814e-05
35.8013
5.10231e-05
35.8013
5.23775e-05
35.8013
5.369e-05
35.8013
5.51174e-05
35.8013
5.65831e-05
35.8013
5.80882e-05
35.8013
5.95561e-05
35.8013
6.11438e-05
35.8013
6.27748e-05
35.8013
6.44504e-05
35.8013
6.60943e-05
35.8013
6.79414e-05
35.8013
6.9682e-05
35.8013
7.1551e-05
35.8013
7.34723e-05
35.8013
7.54476e-05
35.8013
7.74787e-05
35.8013
7.95672e-05
35.8013
8.16375e-05
35.8013
8.39247e-05
35.8013
8.61975e-05
35.8013
8.85358e-05
35.8013
9.09418e-05
35.8013
9.34177e-05
35.8013
9.60436e-05
35.8013
9.85885e-05
35.8013
0.000101366
35.8013
0.000104146
35.8013
0.000107008
35.8013
0.000110032
35.8013
0.000113068
35.8013
0.000116194
35.8013
0.000119492
35.8013
0.000122809
35.8013
0.000126227
35.8013
0.000129827
35.8013
0.000133534
35.8013
0.000137275
35.8013
0.000141208
35.8013
0.000145183
35.8013
0.000149359
35.8013
0.000153662
35.8013
0.000158096
35.8013
0.000162589
35.8013
0.000167379
35.8013
0.000172158
35.8013
0.000177166
35.8013
0.00018233
35.8013
0.000187656
35.8013
0.000193226
35.8013
0.000198813
35.8013
0.000204734
35.8013
0.000210763
35.8013
0.000216982
35.8013
0.000223476
35.8012
0.000230098
35.8012
0.000237008
35.8012
0.000244059
35.8012
0.000251414
35.8012
0.000258925
35.8012
0.000266755
35.8012
0.000274835
35.8012
0.000283173
35.8012
0.000291778
35.8012
0.000300659
35.8012
0.000309824
35.8012
0.000319283
35.8012
0.000329046
35.8011
0.0003392
35.8011
0.000349601
35.8011
0.000360413
35.8011
0.000371492
35.8011
0.000383004
35.8011
0.000394804
35.8011
0.000407139
35.8011
0.000419707
35.801
0.000432831
35.801
0.000446213
35.801
0.000460175
35.801
0.000474496
35.801
0.000489345
35.8009
0.000504578
35.8009
0.000520362
35.8009
0.000536557
35.8009
0.000553406
35.8008
0.00057069
35.8008
0.000588421
35.8008
0.000606845
35.8008
0.000625818
35.8007
0.000645198
35.8007
0.000665386
35.8007
0.000686003
35.8006
0.000707374
35.8006
0.000729196
35.8006
0.000751793
35.8005
0.00077494
35.8005
0.000798726
35.8005
0.000823235
35.8004
0.000848398
35.8004
0.0008743
35.8004
0.000900714
35.8003
0.000927955
35.8003
0.000955793
35.8002
0.000984386
35.8002
0.00101366
35.8001
0.00104361
35.8001
0.00107431
35.8
0.00110561
35.8
0.00113764
35.7999
0.00117026
35.7999
0.00120368
35.7998
0.00123774
35.7997
0.00127233
35.7997
0.00130761
35.7996
0.00134347
35.7996
0.00137988
35.7995
0.00141691
35.7994
0.00145444
35.7994
0.00149245
35.7993
0.00153089
35.7992
0.00156982
35.7992
0.0016091
35.7991
0.0016487
35.799
0.00168865
35.799
0.00172881
35.7989
0.00176915
35.7988
0.00180959
35.7987
0.00185024
35.7987
0.00189072
35.7986
0.00193128
35.7985
0.0019717
35.7984
0.0020119
35.7984
0.0020519
35.7983
0.00209155
35.7982
0.00213076
35.7981
0.00216955
35.7981
0.00220776
35.798
0.00224538
35.7979
0.00228227
35.7978
0.00231835
35.7978
0.00235363
35.7977
0.00238803
35.7976
0.0024214
35.7976
0.00245368
35.7975
0.00248488
35.7974
0.00251486
35.7973
0.00254364
35.7973
0.00257117
35.7972
0.00259732
35.7971
0.00262206
35.7971
0.00264544
35.797
0.0026675
35.7969
0.00268791
35.7969
0.00270706
35.7968
0.00272463
35.7967
0.00274079
35.7967
0.00275556
35.7966
0.00276897
35.7965
0.00278099
35.7965
0.00279174
35.7964
0.0028013
35.7964
0.00280967
35.7963
0.00281709
35.7962
0.00282345
35.7962
0.00282918
35.7961
0.00283411
35.7961
0.00283862
35.796
0.00284275
35.796
0.00284683
35.7959
0.00285086
35.7958
0.00285538
35.7958
0.00286041
35.7957
0.00286631
35.7957
0.00287346
35.7956
0.00288197
35.7955
0.00289244
35.7955
0.00290524
35.7954
0.00292065
35.7953
0.00293929
35.7953
0.00296158
35.7952
0.00298802
35.7951
0.00301939
35.795
0.00305637
35.795
0.0030988
35.7949
0.00314257
0.00317104
34.0907
3.80753e-05
-34.0907
34.0907
3.89842e-05
34.0907
3.99961e-05
34.0907
4.10333e-05
34.0907
4.20962e-05
34.0907
4.31078e-05
34.0907
4.42244e-05
34.0907
4.53692e-05
34.0907
4.6543e-05
34.0907
4.76688e-05
34.0907
4.89809e-05
34.0907
5.01689e-05
34.0907
5.14674e-05
34.0907
5.27994e-05
34.0907
5.40882e-05
34.0907
5.55682e-05
34.0907
5.70071e-05
34.0906
5.8406e-05
34.0906
5.99995e-05
34.0906
6.14776e-05
34.0906
6.31527e-05
34.0906
6.47149e-05
34.0906
6.64767e-05
34.0906
6.82062e-05
34.0906
6.99824e-05
34.0906
7.18069e-05
34.0906
7.37591e-05
34.0906
7.5607e-05
34.0906
7.76636e-05
34.0906
7.9697e-05
34.0906
8.18648e-05
34.0905
8.4013e-05
34.0905
8.62213e-05
34.0905
8.84916e-05
34.0905
9.09817e-05
34.0905
9.33045e-05
34.0905
9.58513e-05
34.0905
9.84686e-05
34.0905
0.000101081
34.0905
0.000103846
34.0905
0.000106689
34.0904
0.000109535
34.0904
0.000112541
34.0904
0.000115633
34.0904
0.000118814
34.0904
0.000122086
34.0904
0.000125375
34.0904
0.000128918
34.0904
0.000132483
34.0903
0.000136075
34.0903
0.000139931
34.0903
0.000143821
34.0903
0.000147904
34.0903
0.00015195
34.0903
0.000156276
34.0903
0.000160729
34.0902
0.000165237
34.0902
0.000169881
34.0902
0.000174744
34.0902
0.000179753
34.0902
0.000184835
34.0902
0.00019015
34.0901
0.000195628
34.0901
0.00020135
34.0901
0.00020709
34.0901
0.000213086
34.0901
0.000219266
34.09
0.000225638
34.09
0.000232286
34.09
0.00023906
34.09
0.000246123
34.09
0.000253327
34.0899
0.000260834
34.0899
0.000268575
34.0899
0.00027648
34.0899
0.000284713
34.0898
0.000293281
34.0898
0.00030196
34.0898
0.000311071
34.0897
0.000320388
34.0897
0.000329999
34.0897
0.000339992
34.0897
0.000350298
34.0896
0.000360849
34.0896
0.000371891
34.0896
0.000383121
34.0895
0.000394784
34.0895
0.000406891
34.0894
0.000419299
34.0894
0.000432095
34.0894
0.00044537
34.0893
0.000459058
34.0893
0.000473171
34.0892
0.000487721
34.0892
0.000502721
34.0892
0.000518182
34.0891
0.000534196
34.0891
0.00055062
34.089
0.000567698
34.089
0.000585134
34.0889
0.000603251
34.0889
0.000621828
34.0888
0.000640956
34.0888
0.000660723
34.0887
0.000681066
34.0887
0.000701995
34.0886
0.000723601
34.0885
0.000745737
34.0885
0.000768494
34.0884
0.000792036
34.0884
0.000816062
34.0883
0.000840969
34.0882
0.000866299
34.0881
0.000892526
34.0881
0.000919266
34.088
0.000946837
34.0879
0.000975008
34.0879
0.00100394
34.0878
0.00103363
34.0877
0.00106384
34.0876
0.00109489
34.0875
0.00112669
34.0874
0.00115901
34.0874
0.00119214
34.0873
0.00122593
34.0872
0.00126028
34.0871
0.00129549
34.087
0.00133115
34.0869
0.00136748
34.0868
0.00140437
34.0867
0.00144196
34.0866
0.00147991
34.0865
0.0015185
34.0864
0.00155761
34.0863
0.00159698
34.0862
0.00163688
34.0861
0.0016771
34.086
0.00171768
34.0859
0.0017585
34.0858
0.00179949
34.0856
0.00184068
34.0855
0.00188194
34.0854
0.00192328
34.0853
0.00196464
34.0852
0.00200579
34.0851
0.0020469
34.085
0.00208767
34.0848
0.00212825
34.0847
0.00216834
34.0846
0.0022081
34.0845
0.00224729
34.0844
0.00228591
34.0843
0.00232382
34.0841
0.00236094
34.084
0.00239742
34.0839
0.0024328
34.0838
0.00246731
34.0837
0.00250082
34.0836
0.0025331
34.0835
0.0025644
34.0834
0.00259434
34.0832
0.0026231
34.0831
0.0026504
34.083
0.00267651
34.0829
0.00270108
34.0828
0.0027243
34.0827
0.00274599
34.0826
0.0027663
34.0825
0.00278499
34.0824
0.00280235
34.0823
0.00281817
34.0823
0.00283247
34.0822
0.0028455
34.0821
0.002857
34.082
0.00286733
34.0819
0.00287624
34.0818
0.00288411
34.0817
0.00289072
34.0817
0.00289649
34.0816
0.00290138
34.0815
0.00290543
34.0814
0.00290896
34.0814
0.00291204
34.0813
0.00291486
34.0812
0.00291769
34.0811
0.00292077
34.0811
0.00292408
34.081
0.00292829
34.0809
0.00293338
34.0809
0.00293974
34.0808
0.00294787
34.0807
0.00295799
34.0807
0.00297052
34.0806
0.00298599
34.0805
0.00300483
34.0805
0.00302783
34.0804
0.0030553
34.0803
0.00308823
34.0803
0.00312805
34.0802
0.00317584
34.0801
0.00324412
0.00334175
32.458
3.7363e-05
-32.458
32.458
3.82579e-05
32.458
3.9334e-05
32.458
4.03582e-05
32.458
4.13309e-05
32.458
4.24863e-05
32.458
4.3514e-05
32.458
4.46485e-05
32.458
4.58905e-05
32.458
4.70076e-05
32.458
4.82342e-05
32.458
4.95713e-05
32.458
5.08642e-05
32.458
5.2114e-05
32.458
5.35553e-05
32.458
5.50336e-05
32.458
5.63944e-05
32.458
5.79503e-05
32.458
5.93911e-05
32.458
6.11073e-05
32.458
6.26333e-05
32.458
6.43597e-05
32.458
6.61323e-05
32.458
6.77968e-05
32.458
6.9744e-05
32.458
7.15864e-05
32.458
7.34813e-05
32.458
7.55082e-05
32.458
7.75912e-05
32.458
7.96541e-05
32.458
8.18547e-05
32.458
8.41171e-05
32.458
8.63655e-05
32.458
8.88355e-05
32.458
9.12181e-05
32.458
9.38269e-05
32.458
9.63528e-05
32.458
9.90319e-05
32.458
0.000101789
32.458
0.000104704
32.458
0.000107625
32.458
0.000110632
32.458
0.000113728
32.458
0.000116916
32.458
0.000120278
32.458
0.000123737
32.458
0.000127221
32.458
0.000130889
32.458
0.000134587
32.458
0.000138476
32.458
0.000142482
32.458
0.000146531
32.458
0.000150861
32.458
0.000155164
32.458
0.000159756
32.458
0.00016441
32.458
0.000169206
32.458
0.000174151
32.458
0.000179249
32.4579
0.000184662
32.4579
0.000190005
32.4579
0.000195674
32.4579
0.000201518
32.4579
0.000207545
32.4579
0.000213759
32.4579
0.000220168
32.4579
0.000226778
32.4579
0.000233597
32.4579
0.000240631
32.4579
0.000247965
32.4579
0.000255452
32.4579
0.000263255
32.4578
0.000271303
32.4578
0.000279529
32.4578
0.000288173
32.4578
0.000296933
32.4578
0.000306129
32.4578
0.000315538
32.4578
0.000325324
32.4578
0.000335341
32.4577
0.000345756
32.4577
0.000356499
32.4577
0.000367583
32.4577
0.000379018
32.4577
0.000390814
32.4577
0.000403061
32.4576
0.000415692
32.4576
0.000428641
32.4576
0.000442153
32.4576
0.000455929
32.4575
0.000470292
32.4575
0.000485099
32.4575
0.000500285
32.4575
0.000516017
32.4574
0.000532231
32.4574
0.000548939
32.4574
0.000566231
32.4573
0.000583965
32.4573
0.000602386
32.4573
0.000621197
32.4572
0.000640719
32.4572
0.000660733
32.4571
0.000681406
32.4571
0.000702749
32.4571
0.000724541
32.457
0.000747103
32.457
0.00077029
32.4569
0.000794113
32.4569
0.000818579
32.4568
0.000843776
32.4568
0.000869556
32.4567
0.000896159
32.4566
0.000923356
32.4566
0.000951387
32.4565
0.000979943
32.4565
0.00100926
32.4564
0.00103942
32.4563
0.0010701
32.4563
0.00110162
32.4562
0.00113382
32.4561
0.00116668
32.4561
0.00120021
32.456
0.00123447
32.4559
0.00126944
32.4558
0.00130496
32.4557
0.00134117
32.4557
0.00137803
32.4556
0.00141547
32.4555
0.00145344
32.4554
0.001492
32.4553
0.00153103
32.4552
0.00157059
32.4551
0.00161056
32.455
0.00165097
32.4549
0.0016917
32.4548
0.00173279
32.4547
0.0017741
32.4546
0.00181574
32.4546
0.00185735
32.4545
0.00189925
32.4543
0.00194107
32.4542
0.0019829
32.4541
0.00202468
32.454
0.00206634
32.4539
0.00210765
32.4538
0.00214878
32.4537
0.00218957
32.4536
0.00222987
32.4535
0.00226968
32.4534
0.00230885
32.4533
0.00234738
32.4532
0.00238528
32.4531
0.00242223
32.453
0.0024584
32.4529
0.00249363
32.4528
0.00252778
32.4528
0.00256086
32.4527
0.00259281
32.4526
0.00262356
32.4525
0.00265307
32.4524
0.00268127
32.4523
0.00270812
32.4522
0.00273358
32.4521
0.00275754
32.4521
0.00278021
32.452
0.00280124
32.4519
0.00282094
32.4518
0.00283907
32.4518
0.0028557
32.4517
0.00287093
32.4516
0.0028847
32.4516
0.00289704
32.4515
0.00290797
32.4515
0.00291757
32.4514
0.00292603
32.4513
0.00293321
32.4513
0.00293933
32.4512
0.00294442
32.4512
0.00294858
32.4511
0.00295209
32.4511
0.00295494
32.451
0.00295727
32.451
0.00295933
32.4509
0.00296123
32.4509
0.00296333
32.4508
0.00296569
32.4508
0.00296856
32.4508
0.00297244
32.4507
0.00297731
32.4507
0.00298364
32.4506
0.00299188
32.4506
0.00300233
32.4505
0.00301534
32.4505
0.00303147
32.4504
0.00305141
32.4504
0.00307553
32.4503
0.00310462
32.4503
0.00313962
32.4502
0.00318125
32.4502
0.00323024
32.4501
0.00328051
0.00331563
30.9065
4.06943e-05
-30.9065
30.9065
4.18187e-05
30.9065
4.28934e-05
30.9065
4.39183e-05
30.9065
4.51273e-05
30.9065
4.62879e-05
30.9064
4.74788e-05
30.9064
4.8701e-05
30.9064
5.00333e-05
30.9064
5.13211e-05
30.9064
5.26431e-05
30.9064
5.40005e-05
30.9064
5.54723e-05
30.9064
5.69038e-05
30.9064
5.8452e-05
30.9064
5.99625e-05
30.9064
6.15142e-05
30.9064
6.31865e-05
30.9064
6.49028e-05
30.9064
6.65867e-05
30.9064
6.83953e-05
30.9064
7.02524e-05
30.9064
7.20816e-05
30.9064
7.40403e-05
30.9064
7.60523e-05
30.9063
7.81194e-05
30.9063
8.01655e-05
30.9063
8.2426e-05
30.9063
8.45916e-05
30.9063
8.69755e-05
30.9063
8.93463e-05
30.9063
9.17841e-05
30.9063
9.42911e-05
30.9063
9.68696e-05
30.9063
9.95999e-05
30.9063
0.000102329
30.9063
0.000105136
30.9063
0.000108104
30.9062
0.000111078
30.9062
0.000114217
30.9062
0.000117446
30.9062
0.000120691
30.9062
0.000124188
30.9062
0.000127629
30.9062
0.000131251
30.9062
0.000134981
30.9062
0.00013882
30.9062
0.000142774
30.9061
0.000146925
30.9061
0.000151042
30.9061
0.000155519
30.9061
0.000159893
30.9061
0.000164637
30.9061
0.000169287
30.9061
0.000174316
30.906
0.000179417
30.906
0.000184596
30.906
0.000190014
30.906
0.000195675
30.906
0.000201431
30.906
0.000207365
30.9059
0.000213483
30.9059
0.000219869
30.9059
0.000226453
30.9059
0.000233241
30.9059
0.000240161
30.9058
0.000247378
30.9058
0.000254898
30.9058
0.000262574
30.9058
0.000270491
30.9058
0.000278658
30.9057
0.000287238
30.9057
0.000295928
30.9057
0.000304972
30.9057
0.000314301
30.9056
0.000323923
30.9056
0.000333927
30.9056
0.000344167
30.9055
0.000354808
30.9055
0.000365783
30.9055
0.000377025
30.9054
0.000388778
30.9054
0.000400898
30.9054
0.00041324
30.9053
0.000426205
30.9053
0.000439415
30.9053
0.000453195
30.9052
0.000467321
30.9052
0.000481886
30.9052
0.000497056
30.9051
0.000512533
30.9051
0.000528563
30.905
0.000545158
30.905
0.000562177
30.9049
0.000579787
30.9049
0.000597923
30.9048
0.000616675
30.9048
0.000635902
30.9047
0.00065577
30.9047
0.000676214
30.9046
0.000697324
30.9046
0.000718957
30.9045
0.000741278
30.9044
0.000764221
30.9044
0.000787875
30.9043
0.00081217
30.9042
0.000837117
30.9042
0.000862723
30.9041
0.000889153
30.904
0.0009161
30.904
0.000943882
30.9039
0.000972347
30.9038
0.0010015
30.9037
0.00103134
30.9036
0.00106203
30.9036
0.00109332
30.9035
0.00112538
30.9034
0.00115812
30.9033
0.00119153
30.9032
0.00122576
30.9031
0.00126056
30.903
0.00129609
30.9029
0.00133231
30.9028
0.00136907
30.9027
0.00140657
30.9026
0.00144455
30.9025
0.00148322
30.9024
0.0015224
30.9023
0.00156205
30.9022
0.0016023
30.9021
0.00164279
30.9019
0.00168388
30.9018
0.00172528
30.9017
0.00176695
30.9016
0.00180891
30.9015
0.00185112
30.9014
0.00189336
30.9012
0.00193587
30.9011
0.0019783
30.901
0.0020208
30.9009
0.00206316
30.9008
0.00210531
30.9006
0.00214733
30.9005
0.00218899
30.9004
0.0022303
30.9003
0.00227118
30.9001
0.00231156
30.9
0.00235128
30.8999
0.00239043
30.8998
0.00242876
30.8997
0.0024663
30.8995
0.00250296
30.8994
0.00253874
30.8993
0.00257343
30.8992
0.00260703
30.8991
0.00263949
30.899
0.00267073
30.8989
0.00270071
30.8988
0.00272945
30.8987
0.00275682
30.8986
0.00278271
30.8985
0.00280723
30.8984
0.00283028
30.8983
0.00285191
30.8982
0.00287195
30.8981
0.00289061
30.898
0.00290768
30.8979
0.00292321
30.8978
0.0029374
30.8978
0.00295002
30.8977
0.00296126
30.8976
0.00297117
30.8975
0.0029797
30.8975
0.00298701
30.8974
0.00299307
30.8973
0.00299806
30.8973
0.00300205
30.8972
0.00300515
30.8971
0.00300741
30.8971
0.00300901
30.897
0.00301019
30.897
0.00301087
30.8969
0.00301152
30.8969
0.00301202
30.8968
0.0030129
30.8968
0.00301413
30.8967
0.00301613
30.8967
0.003019
30.8966
0.00302328
30.8966
0.00302897
30.8966
0.00303684
30.8965
0.00304696
30.8965
0.00305992
30.8964
0.00307614
30.8964
0.00309626
30.8963
0.00312089
30.8963
0.0031508
30.8962
0.00318666
30.8962
0.00323004
30.8961
0.00328146
30.8961
0.00335273
0.00345293
29.4269
4.11278e-05
-29.4269
29.4269
4.2189e-05
29.4269
4.32787e-05
29.4269
4.43977e-05
29.4269
4.56244e-05
29.4269
4.68039e-05
29.4269
4.80153e-05
29.4269
4.93373e-05
29.4269
5.06155e-05
29.4269
5.20064e-05
29.4269
5.33556e-05
29.4269
5.482e-05
29.4269
5.63228e-05
29.4269
5.77876e-05
29.4269
5.92935e-05
29.4269
6.09974e-05
29.4269
6.25895e-05
29.4269
6.43047e-05
29.4269
6.59888e-05
29.4269
6.78768e-05
29.4269
6.96592e-05
29.4269
7.16488e-05
29.4269
7.3536e-05
29.4269
7.56341e-05
29.4269
7.77113e-05
29.4269
7.98474e-05
29.4269
8.20444e-05
29.4269
8.43044e-05
29.4269
8.67074e-05
29.4269
8.90999e-05
29.4269
9.1562e-05
29.4269
9.4174e-05
29.4269
9.68606e-05
29.4269
9.95464e-05
29.4269
0.00010239
29.4269
0.000105316
29.4269
0.000108327
29.4269
0.000111349
29.4269
0.00011454
29.4269
0.000117904
29.4268
0.00012121
29.4268
0.000124773
29.4268
0.000128362
29.4268
0.000132139
29.4268
0.00013595
29.4268
0.000139877
29.4268
0.000144003
29.4268
0.000148253
29.4268
0.000152554
29.4268
0.000157145
29.4268
0.000161718
29.4268
0.000166513
29.4268
0.000171533
29.4268
0.000176629
29.4268
0.000181884
29.4268
0.000187381
29.4268
0.00019297
29.4267
0.000198814
29.4267
0.00020484
29.4267
0.000211054
29.4267
0.000217464
29.4267
0.000224076
29.4267
0.000230897
29.4267
0.000238012
29.4267
0.000245273
29.4267
0.000252921
29.4266
0.000260654
29.4266
0.000268711
29.4266
0.000277025
29.4266
0.000285604
29.4266
0.000294535
29.4266
0.00030367
29.4266
0.000313253
29.4265
0.000322983
29.4265
0.000333103
29.4265
0.000343623
29.4265
0.000354397
29.4265
0.000365593
29.4264
0.000377065
29.4264
0.000389058
29.4264
0.000401272
29.4264
0.000414108
29.4263
0.000427188
29.4263
0.000440681
29.4263
0.000454754
29.4262
0.000469186
29.4262
0.000484067
29.4262
0.000499566
29.4261
0.000515384
29.4261
0.000531767
29.4261
0.00054873
29.426
0.000566205
29.426
0.000584207
29.426
0.000602749
29.4259
0.000621843
29.4259
0.000641579
29.4258
0.000661971
29.4258
0.000682875
29.4257
0.00070438
29.4257
0.000726655
29.4256
0.000749477
29.4256
0.000772934
29.4255
0.000797192
29.4255
0.000822028
29.4254
0.000847528
29.4253
0.000873856
29.4253
0.000900785
29.4252
0.000928478
29.4251
0.000956861
29.4251
0.000986017
29.425
0.00101587
29.4249
0.00104642
29.4249
0.00107775
29.4248
0.00110977
29.4247
0.00114256
29.4246
0.00117612
29.4245
0.00121028
29.4244
0.00124518
29.4243
0.00128074
29.4243
0.0013171
29.4242
0.00135409
29.4241
0.00139168
29.424
0.00142986
29.4239
0.00146874
29.4238
0.00150817
29.4237
0.00154809
29.4236
0.00158855
29.4235
0.00162952
29.4233
0.00167089
29.4232
0.00171267
29.4231
0.00175484
29.423
0.00179725
29.4229
0.00183995
29.4228
0.00188286
29.4227
0.00192586
29.4225
0.00196897
29.4224
0.00201211
29.4223
0.00205523
29.4222
0.00209825
29.4221
0.00214103
29.4219
0.00218358
29.4218
0.00222581
29.4217
0.00226766
29.4216
0.00230905
29.4215
0.00234982
29.4213
0.00239014
29.4212
0.00242961
29.4211
0.00246839
29.421
0.00250626
29.4209
0.00254329
29.4208
0.00257934
29.4207
0.00261434
29.4205
0.0026483
29.4204
0.00268092
29.4203
0.00271245
29.4202
0.00274261
29.4201
0.0027715
29.42
0.00279907
29.4199
0.00282513
29.4198
0.00284971
29.4198
0.00287296
29.4197
0.00289467
29.4196
0.00291476
29.4195
0.00293346
29.4194
0.0029506
29.4193
0.00296618
29.4193
0.0029803
29.4192
0.00299306
29.4191
0.00300415
29.4191
0.00301402
29.419
0.00302239
29.419
0.00302954
29.4189
0.00303547
29.4188
0.00304015
29.4188
0.00304375
29.4187
0.00304643
29.4187
0.00304806
29.4187
0.00304906
29.4186
0.00304939
29.4186
0.00304911
29.4185
0.00304851
29.4185
0.00304768
29.4185
0.00304688
29.4184
0.00304612
29.4184
0.00304585
29.4184
0.00304607
29.4183
0.00304725
29.4183
0.00304951
29.4183
0.00305321
29.4182
0.00305862
29.4182
0.00306616
29.4182
0.00307631
29.4182
0.00308936
29.4181
0.00310589
29.4181
0.00312654
29.4181
0.0031518
29.418
0.00318257
29.418
0.00321974
29.418
0.00326404
29.4179
0.00331672
29.4179
0.0033725
0.00341626
28.02
4.43046e-05
-28.02
28.02
4.55202e-05
28.02
4.67676e-05
28.02
4.78912e-05
28.0199
4.92027e-05
28.0199
5.05477e-05
28.0199
5.18494e-05
28.0199
5.32646e-05
28.0199
5.47166e-05
28.0199
5.61288e-05
28.0199
5.76581e-05
28.0199
5.91501e-05
28.0199
6.08397e-05
28.0199
6.24168e-05
28.0199
6.41165e-05
28.0199
6.58622e-05
28.0199
6.76557e-05
28.0199
6.94984e-05
28.0199
7.14698e-05
28.0199
7.33382e-05
28.0199
7.54166e-05
28.0199
7.73956e-05
28.0199
7.95883e-05
28.0199
8.1841e-05
28.0199
8.40781e-05
28.0198
8.63793e-05
28.0198
8.88248e-05
28.0198
9.12612e-05
28.0198
9.38464e-05
28.0198
9.65051e-05
28.0198
9.92397e-05
28.0198
0.000101975
28.0198
0.000104948
28.0198
0.000107849
28.0198
0.000110915
28.0198
0.000114148
28.0198
0.000117398
28.0197
0.000120744
28.0197
0.000124267
28.0197
0.000127816
28.0197
0.000131473
28.0197
0.000135317
28.0197
0.000139277
28.0197
0.000143355
28.0197
0.000147478
28.0197
0.000151885
28.0196
0.000156345
28.0196
0.000160941
28.0196
0.000165679
28.0196
0.000170641
28.0196
0.000175676
28.0196
0.000180946
28.0196
0.000186378
28.0196
0.0001919
28.0195
0.000197673
28.0195
0.000203705
28.0195
0.000209845
28.0195
0.000216178
28.0195
0.000222788
28.0194
0.000229527
28.0194
0.000236557
28.0194
0.000243809
28.0194
0.000251289
28.0194
0.000259007
28.0193
0.000267047
28.0193
0.000275262
28.0193
0.000283817
28.0193
0.000292565
28.0193
0.000301749
28.0192
0.000311145
28.0192
0.000320839
28.0192
0.000330843
28.0191
0.000341321
28.0191
0.000351973
28.0191
0.000363044
28.0191
0.000374544
28.019
0.000386328
28.019
0.000398564
28.019
0.000411186
28.0189
0.000424205
28.0189
0.000437634
28.0188
0.000451562
28.0188
0.000465925
28.0188
0.000480657
28.0187
0.000496082
28.0187
0.000511747
28.0186
0.000528131
28.0186
0.000544859
28.0185
0.000562254
28.0185
0.000580175
28.0185
0.000598556
28.0184
0.000617645
28.0183
0.000637221
28.0183
0.00065753
28.0182
0.000678274
28.0182
0.000699776
28.0181
0.000721815
28.0181
0.000744636
28.018
0.000768018
28.0179
0.000792126
28.0179
0.000816893
28.0178
0.000842406
28.0177
0.000868597
28.0176
0.000895473
28.0176
0.000923118
28.0175
0.000951462
28.0174
0.000980586
28.0173
0.00101034
28.0172
0.00104096
28.0172
0.00107228
28.0171
0.00110439
28.017
0.00113713
28.0169
0.00117073
28.0168
0.00120494
28.0167
0.00124
28.0166
0.00127573
28.0165
0.00131212
28.0164
0.00134923
28.0163
0.00138705
28.0162
0.0014254
28.0161
0.00146457
28.016
0.00150421
28.0158
0.00154439
28.0157
0.00158521
28.0156
0.00162657
28.0155
0.00166828
28.0154
0.00171051
28.0152
0.00175309
28.0151
0.0017961
28.015
0.00183919
28.0149
0.00188278
28.0147
0.00192633
28.0146
0.00197017
28.0145
0.00201402
28.0143
0.0020578
28.0142
0.0021016
28.0141
0.00214519
28.0139
0.00218859
28.0138
0.0022318
28.0137
0.00227458
28.0135
0.00231693
28.0134
0.00235878
28.0133
0.00240006
28.0131
0.00244076
28.013
0.00248057
28.0129
0.00251972
28.0127
0.00255799
28.0126
0.00259523
28.0125
0.00263143
28.0124
0.0026667
28.0123
0.00270064
28.0121
0.00273352
28.012
0.0027651
28.0119
0.00279535
28.0118
0.00282421
28.0117
0.0028517
28.0116
0.00287773
28.0115
0.00290231
28.0114
0.00292528
28.0113
0.00294693
28.0112
0.00296683
28.0111
0.00298538
28.011
0.00300226
28.0109
0.00301763
28.0108
0.00303142
28.0108
0.00304387
28.0107
0.00305472
28.0106
0.00306413
28.0105
0.00307216
28.0105
0.00307884
28.0104
0.00308432
28.0104
0.00308841
28.0103
0.00309151
28.0103
0.00309352
28.0102
0.00309439
28.0102
0.0030946
28.0101
0.00309394
28.0101
0.00309261
28.01
0.0030908
28.01
0.00308865
28.0099
0.00308615
28.0099
0.0030837
28.0099
0.00308139
28.0098
0.00307925
28.0098
0.00307773
28.0098
0.00307695
28.0097
0.0030771
28.0097
0.00307852
28.0097
0.00308165
28.0097
0.00308651
28.0096
0.00309369
28.0096
0.00310359
28.0096
0.00311649
28.0096
0.00313314
28.0095
0.00315386
28.0095
0.00317954
28.0095
0.00321086
28.0094
0.00324842
28.0094
0.00329377
28.0094
0.00334716
28.0093
0.00341821
0.00351391
26.679
4.58676e-05
-26.679
26.679
4.70513e-05
26.679
4.83455e-05
26.679
4.96737e-05
26.679
5.09585e-05
26.679
5.23569e-05
26.679
5.37922e-05
26.679
5.51879e-05
26.679
5.67009e-05
26.679
5.82547e-05
26.679
5.98506e-05
26.679
6.14901e-05
26.679
6.31745e-05
26.679
6.49055e-05
26.679
6.67623e-05
26.679
6.85133e-05
26.679
7.04713e-05
26.679
7.23268e-05
26.679
7.44708e-05
26.679
7.64381e-05
26.6789
7.86199e-05
26.6789
8.08626e-05
26.6789
8.30903e-05
26.6789
8.53832e-05
26.6789
8.78991e-05
26.6789
9.0329e-05
26.6789
9.2909e-05
26.6789
9.54858e-05
26.6789
9.82955e-05
26.6789
0.000101107
26.6789
0.000104002
26.6789
0.000106983
26.6789
0.000110052
26.6789
0.000113291
26.6789
0.000116547
26.6789
0.000119979
26.6789
0.000123436
26.6789
0.000127076
26.6789
0.000130826
26.6789
0.000134611
26.6788
0.000138669
26.6788
0.00014277
26.6788
0.00014692
26.6788
0.000151356
26.6788
0.000155926
26.6788
0.000160559
26.6788
0.000165336
26.6788
0.000170342
26.6788
0.000175502
26.6788
0.000180824
26.6788
0.000186312
26.6787
0.000191972
26.6787
0.000197811
26.6787
0.000203913
26.6787
0.000210129
26.6787
0.000216699
26.6787
0.00022324
26.6787
0.000230228
26.6787
0.000237358
26.6786
0.000244793
26.6786
0.000252308
26.6786
0.000260301
26.6786
0.000268391
26.6786
0.000276819
26.6786
0.000285517
26.6785
0.000294495
26.6785
0.000303839
26.6785
0.000313481
26.6785
0.000323355
26.6785
0.000333624
26.6784
0.000344301
26.6784
0.000355162
26.6784
0.000366608
26.6784
0.000378261
26.6783
0.000390366
26.6783
0.000402934
26.6783
0.000415822
26.6782
0.000429199
26.6782
0.000442998
26.6782
0.000457232
26.6781
0.000471915
26.6781
0.000487136
26.6781
0.000502833
26.678
0.000519016
26.678
0.000535779
26.6779
0.000553057
26.6779
0.000570785
26.6779
0.000589288
26.6778
0.000608113
26.6778
0.00062774
26.6777
0.000647871
26.6777
0.000668674
26.6776
0.000690086
26.6776
0.000712119
26.6775
0.000734862
26.6774
0.000758172
26.6774
0.000782293
26.6773
0.000807082
26.6773
0.000832626
26.6772