/*--------------------------------*- C++ -*----------------------------------*\
  =========                 |
  \\      /  F ield         | OpenFOAM: The Open Source CFD Toolbox
   \\    /   O peration     | Website:  https://openfoam.org
    \\  /    A nd           | Version:  7
     \\/     M anipulation  |
\*---------------------------------------------------------------------------*/
FoamFile
{
    version     2.0;
    format      ascii;
    class       volVectorField;
    location    "1";
    object      U;
}
// * * * * * * * * * * * * * * * * * * * * * * * * * * * * * * * * * * * * * //

dimensions      [0 1 -1 0 0 0 0];

internalField   nonuniform List<vector> 
108025
(
(77.8133 0.0143562 0)
(77.8133 0.0143743 3.55553e-30)
(77.8133 0.0143928 0)
(77.8132 0.0144118 0)
(77.8132 0.0144312 0)
(77.8132 0.0144511 0)
(77.8132 0.0144714 0)
(77.8132 0.0144923 2.00351e-21)
(77.8132 0.0145136 -2.02311e-21)
(77.8132 0.0145354 7.7915e-30)
(77.8132 0.0145578 -7.87779e-30)
(77.8131 0.0145807 -2.0414e-21)
(77.8131 0.0146041 2.0603e-21)
(77.8131 0.0146281 0)
(77.8131 0.0146527 0)
(77.8131 0.0146779 2.07093e-21)
(77.8131 0.0147037 -2.08904e-21)
(77.813 0.0147301 8.48958e-30)
(77.813 0.0147571 -2.087e-21)
(77.813 0.0147848 2.10447e-21)
(77.813 0.0148132 0)
(77.813 0.0148422 8.84598e-30)
(77.813 0.0148719 0)
(77.8129 0.0149024 0)
(77.8129 0.0149336 -1.82341e-29)
(77.8129 0.0149655 1.84164e-29)
(77.8129 0.0149983 0)
(77.8129 0.0150318 1.87837e-29)
(77.8128 0.0150661 0)
(77.8128 0.0151012 -1.91549e-29)
(77.8128 0.0151372 0)
(77.8128 0.0151741 0)
(77.8127 0.0152119 -2.08019e-21)
(77.8127 0.0152505 2.09416e-21)
(77.8127 0.0152901 -2.06659e-21)
(77.8127 0.0153307 2.08001e-21)
(77.8126 0.0153722 0)
(77.8126 0.0154147 -2.06863e-29)
(77.8126 0.0154583 -4.17683e-29)
(77.8126 0.0155029 2.01675e-21)
(77.8125 0.0155486 -2.02877e-21)
(77.8125 0.0155954 1.99011e-21)
(77.8125 0.0156433 -2.00157e-21)
(77.8125 0.0156923 -1.95943e-21)
(77.8124 0.0157425 3.91286e-21)
(77.8124 0.0157939 -1.95314e-21)
(77.8124 0.0158466 0)
(77.8123 0.0159005 1.88537e-21)
(77.8123 0.0159557 -1.89513e-21)
(77.8123 0.0160122 0)
(77.8122 0.01607 0)
(77.8122 0.0161292 4.72876e-29)
(77.8122 0.0161898 4.7749e-29)
(77.8121 0.0162518 0)
(77.8121 0.0163153 0)
(77.812 0.0163802 0)
(77.812 0.0164467 -1.65114e-21)
(77.812 0.0165147 1.65838e-21)
(77.8119 0.0165843 -1.01333e-28)
(77.8119 0.0166555 -1.5503e-21)
(77.8118 0.0167284 1.55672e-21)
(77.8118 0.0168029 0)
(77.8118 0.0168791 0)
(77.8117 0.0169571 1.06662e-28)
(77.8117 0.0170368 0)
(77.8116 0.0171183 0)
(77.8116 0.0172016 0)
(77.8115 0.0172868 -1.21911e-21)
(77.8115 0.0173739 5.25418e-23)
(77.8114 0.0174628 5.38936e-23)
(77.8114 0.0175538 2.1945e-21)
(77.8113 0.0176466 -1.07318e-21)
(77.8112 0.0177415 9.6169e-22)
(77.8112 0.0178384 -9.64777e-22)
(77.8111 0.0179374 -2.408e-28)
(77.8111 0.0180384 2.43638e-28)
(77.811 0.0181415 0)
(77.811 0.0182468 2.49513e-28)
(77.8109 0.0183541 2.52555e-28)
(77.8108 0.0184637 -5.28149e-22)
(77.8108 0.0185754 5.2962e-22)
(77.8107 0.0186893 2.62129e-28)
(77.8106 0.0188054 5.30956e-28)
(77.8106 0.0189237 5.3782e-28)
(77.8105 0.0190443 0)
(77.8104 0.0191671 8.09738e-23)
(77.8103 0.0192921 -8.1173e-23)
(77.8103 0.0194194 5.67047e-28)
(77.8102 0.0195488 5.74824e-28)
(77.8101 0.0196805 2.60018e-22)
(77.81 0.0198145 9.038e-23)
(77.8099 0.0199506 -7.96089e-22)
(77.8098 0.0200889 4.45288e-22)
(77.8098 0.0202293 0)
(77.8097 0.0203719 -6.25876e-28)
(77.8096 0.0205166 0)
(77.8095 0.0206633 1.28941e-27)
(77.8094 0.020812 0)
(77.8093 0.0209627 1.32905e-27)
(77.8092 0.0211153 -1.34964e-27)
(77.8091 0.0212697 0)
(77.809 0.0214258 0)
(77.8089 0.0215837 1.63979e-21)
(77.8088 0.0217431 -1.64259e-21)
(77.8087 0.021904 1.46073e-27)
(77.8086 0.0220663 0)
(77.8084 0.0222299 0)
(77.8083 0.0223947 0)
(77.8082 0.0225604 2.43546e-21)
(77.8081 0.022727 -5.0179e-21)
(77.808 0.0228944 2.58257e-21)
(77.8078 0.0230623 0)
(77.8077 0.0232305 -3.02783e-21)
(77.8076 0.023399 -1.51967e-22)
(77.8075 0.0235674 6.53157e-21)
(77.8073 0.0237356 -3.34773e-21)
(77.8072 0.0239033 0)
(77.807 0.0240704 0)
(77.8069 0.0242365 3.7056e-27)
(77.8068 0.0244014 3.77141e-27)
(77.8066 0.0245648 4.36889e-21)
(77.8065 0.0247265 -4.37389e-21)
(77.8063 0.024886 -4.73712e-21)
(77.8061 0.0250432 9.6684e-21)
(77.806 0.0251977 -4.93137e-21)
(77.8058 0.0253491 4.19362e-27)
(77.8057 0.025497 0)
(77.8055 0.0256412 0)
(77.8053 0.0257813 -5.91823e-21)
(77.8052 0.0259167 1.20495e-20)
(77.805 0.0260473 2.04559e-22)
(77.8048 0.0261725 -6.34168e-21)
(77.8046 0.0262919 9.48125e-27)
(77.8045 0.0264051 0)
(77.8043 0.0265117 9.81166e-27)
(77.8041 0.0266113 7.42552e-21)
(77.8039 0.0267033 2.18637e-22)
(77.8038 0.0267875 -1.55328e-20)
(77.8036 0.0268632 7.88268e-21)
(77.8034 0.0269301 -8.33441e-21)
(77.8032 0.0269878 8.3405e-21)
(77.803 0.0270357 0)
(77.8028 0.0270736 0)
(77.8026 0.0271009 0)
(77.8025 0.0271173 -9.49675e-21)
(77.8023 0.0271223 -2.27427e-22)
(77.8021 0.0271156 9.73644e-21)
(77.8019 0.0270969 0)
(77.8017 0.0270658 0)
(77.8015 0.027022 1.06589e-20)
(77.8014 0.0269653 -1.0665e-20)
(77.8012 0.0268952 -2.54205e-26)
(77.801 0.0268118 1.13407e-20)
(77.8008 0.0267147 2.16827e-22)
(77.8007 0.0266037 -1.15694e-20)
(77.8005 0.0264789 -1.20004e-20)
(77.8003 0.0263401 -2.07588e-22)
(77.8002 0.0261874 1.22195e-20)
(77.8 0.0260206 -1.26289e-20)
(77.7999 0.0258399 1.26345e-20)
(77.7997 0.0256454 1.30263e-20)
(77.7996 0.0254373 -2.62494e-20)
(77.7994 0.0252158 -1.80649e-22)
(77.7993 0.0249811 1.3409e-20)
(77.7992 0.0247336 1.37587e-20)
(77.799 0.0244737 -1.37639e-20)
(77.7989 0.0242016 -5.89839e-26)
(77.7988 0.0239181 1.42454e-20)
(77.7987 0.0236234 -1.42502e-20)
(77.7986 0.0233184 -1.45367e-20)
(77.7985 0.0230035 1.45413e-20)
(77.7984 0.0226794 0)
(77.7983 0.0223468 -1.21934e-25)
(77.7983 0.0220066 1.50349e-20)
(77.7982 0.0216595 -3.01804e-20)
(77.7981 0.0213063 -9.49883e-23)
(77.7981 0.020948 1.52442e-20)
(77.798 0.0205854 -1.54162e-20)
(77.798 0.0202195 -7.34514e-23)
(77.7979 0.0198513 -6.60653e-23)
(77.7979 0.0194818 3.11917e-20)
(77.7979 0.019112 -3.13095e-20)
(77.7979 0.0187429 1.5684e-20)
(77.7978 0.0183756 7.88551e-21)
(77.7978 0.0180113 -7.88681e-21)
(77.7978 0.017651 -7.91712e-21)
(77.7978 0.0172958 7.91816e-21)
(77.7978 0.0169469 0)
(77.7979 0.0166053 -7.93999e-21)
(77.7979 0.0162723 -9.74938e-25)
(77.7979 0.015949 1.58844e-20)
(77.7979 0.0156364 -7.94224e-21)
(77.798 0.0153357 0)
(77.798 0.0150479 -3.96133e-21)
(77.7981 0.0147741 7.91751e-21)
(77.7981 0.0145149 -3.95638e-21)
(77.7982 0.0142713 0)
(77.7982 0.0140431 0)
(77.7982 0.0138318 2.43695e-25)
(77.7983 0.0136301 4.86369e-25)
(77.7983 0.0134677 0)
(77.7982 0.01323 0)
(77.8107 0.00261766 5.8727e-30)
(77.8107 0.00262312 -5.81726e-21)
(77.8107 0.0026291 5.87925e-21)
(77.8107 0.00263532 5.93543e-21)
(77.8107 0.00264167 -5.99707e-21)
(77.8107 0.00264816 -6.23336e-30)
(77.8107 0.00265481 -6.1112e-21)
(77.8107 0.00266161 6.17222e-21)
(77.8107 0.00266857 6.45706e-30)
(77.8107 0.00267569 -8.15746e-30)
(77.8107 0.00268297 2.14642e-29)
(77.8107 0.00269043 -1.33678e-29)
(77.8107 0.00269806 -6.45459e-21)
(77.8107 0.00270587 1.30245e-20)
(77.8107 0.00271386 -6.56962e-21)
(77.8108 0.00272203 -6.62146e-21)
(77.8108 0.0027304 6.67978e-21)
(77.8108 0.00273896 -2.31895e-29)
(77.8108 0.00274772 6.78466e-21)
(77.8108 0.00275668 -3.64572e-24)
(77.8108 0.00276585 -1.37862e-20)
(77.8108 0.00277523 6.94763e-21)
(77.8108 0.00278483 -1.50956e-29)
(77.8108 0.00279465 -7.04774e-21)
(77.8108 0.0028047 1.42017e-20)
(77.8108 0.00281498 -7.15354e-21)
(77.8108 0.0028255 0)
(77.8108 0.00283626 -1.96873e-29)
(77.8108 0.00284727 7.29888e-21)
(77.8108 0.00285853 -3.94318e-24)
(77.8108 0.00287005 -1.47957e-20)
(77.8108 0.00288183 7.44753e-21)
(77.8108 0.00289388 7.4908e-21)
(77.8108 0.00290621 -1.5079e-20)
(77.8108 0.00291882 7.58765e-21)
(77.8108 0.00293171 7.62945e-21)
(77.8109 0.0029449 -7.67851e-21)
(77.8109 0.00295839 7.71938e-21)
(77.8109 0.00297219 -7.76737e-21)
(77.8109 0.00298629 7.80736e-21)
(77.8109 0.00300072 -7.85425e-21)
(77.8109 0.00301546 -7.89343e-21)
(77.8109 0.00303054 3.44559e-24)
(77.8109 0.00304596 3.34119e-24)
(77.8109 0.00306172 8.02233e-21)
(77.8109 0.00307783 -8.06013e-21)
(77.8109 0.0030943 8.10368e-21)
(77.8109 0.00311114 0)
(77.8109 0.00312834 4.81935e-29)
(77.8109 0.00314593 -8.04052e-29)
(77.8109 0.0031639 0)
(77.8109 0.00318226 -4.96123e-29)
(77.8109 0.00320102 -5.0098e-29)
(77.8109 0.00322019 0)
(77.8109 0.00323976 0)
(77.8109 0.00325976 0)
(77.8109 0.00328019 0)
(77.8109 0.00330105 8.52461e-21)
(77.8109 0.00332234 -8.56152e-21)
(77.8109 0.00334409 0)
(77.8109 0.00336629 -1.82273e-28)
(77.8109 0.00338895 0)
(77.8109 0.00341207 0)
(77.8109 0.00343567 7.70748e-29)
(77.8109 0.00345974 0)
(77.8109 0.0034843 0)
(77.8109 0.00350934 -1.9624e-28)
(77.8109 0.00353488 8.89127e-21)
(77.8109 0.00356092 -8.92299e-21)
(77.8109 0.00358747 8.9652e-21)
(77.8109 0.00361452 -8.99594e-21)
(77.8109 0.00364208 0)
(77.8109 0.00367015 -4.24715e-28)
(77.8109 0.00369875 4.30578e-28)
(77.8109 0.00372786 9.15466e-21)
(77.8109 0.00375749 -9.18305e-21)
(77.8109 0.00378764 4.49116e-28)
(77.8109 0.00381832 -2.6194e-28)
(77.8108 0.00384951 -2.65138e-28)
(77.8108 0.00388123 2.00783e-28)
(77.8108 0.00391346 -9.39713e-21)
(77.8108 0.0039462 -1.69212e-23)
(77.8108 0.00397945 9.46519e-21)
(77.8108 0.0040132 -5.64657e-28)
(77.8108 0.00404745 0)
(77.8108 0.00408218 0)
(77.8107 0.00411739 0)
(77.8107 0.00415307 -5.95371e-28)
(77.8107 0.00418919 -6.03543e-28)
(77.8107 0.00422576 9.81451e-21)
(77.8106 0.00426274 -9.83681e-21)
(77.8106 0.00430013 1.1368e-27)
(77.8106 0.0043379 6.38385e-28)
(77.8106 0.00437602 0)
(77.8105 0.00441448 6.57184e-28)
(77.8105 0.00445325 -1.01462e-20)
(77.8105 0.00449229 -4.02483e-23)
(77.8104 0.00453157 1.02267e-20)
(77.8104 0.00457106 -1.39558e-27)
(77.8104 0.00461072 1.41721e-27)
(77.8103 0.0046505 0)
(77.8103 0.00469037 0)
(77.8103 0.00473027 4.26012e-27)
(77.8102 0.00477014 -4.33751e-27)
(77.8102 0.00480995 -1.53391e-27)
(77.8101 0.00484962 -2.93943e-27)
(77.8101 0.00488909 2.9973e-27)
(77.81 0.0049283 -3.05669e-27)
(77.81 0.00496718 1.63824e-27)
(77.8099 0.00500564 -1.11645e-20)
(77.8099 0.00504361 1.11809e-20)
(77.8098 0.00508101 0)
(77.8097 0.00511775 -6.75403e-27)
(77.8097 0.00515374 -3.56678e-27)
(77.8096 0.00518887 -3.62893e-27)
(77.8095 0.00522305 1.17312e-20)
(77.8095 0.00525617 -1.17463e-20)
(77.8094 0.00528813 -1.19393e-20)
(77.8093 0.0053188 1.19539e-20)
(77.8093 0.00534807 -1.21569e-20)
(77.8092 0.00537581 1.21712e-20)
(77.8091 0.00540191 -1.2384e-20)
(77.809 0.00542623 1.23979e-20)
(77.8089 0.00544864 1.26203e-20)
(77.8089 0.005469 -1.26338e-20)
(77.8088 0.00548717 -1.3199e-26)
(77.8087 0.00550302 1.2991e-20)
(77.8086 0.0055164 -1.3004e-20)
(77.8085 0.00552717 0)
(77.8084 0.00553518 1.33796e-20)
(77.8083 0.00554029 -1.3392e-20)
(77.8082 0.00554235 1.98103e-26)
(77.8081 0.00554123 -1.3783e-20)
(77.808 0.00553678 1.37949e-20)
(77.8079 0.00552886 -1.03036e-26)
(77.8078 0.00551735 0)
(77.8077 0.0055021 -2.17753e-26)
(77.8076 0.00548301 0)
(77.8075 0.00545995 0)
(77.8074 0.00543281 -2.29828e-26)
(77.8073 0.00540149 3.47644e-26)
(77.8072 0.00536591 0)
(77.8071 0.00532597 -1.51812e-20)
(77.807 0.00528162 1.51915e-20)
(77.8069 0.00523279 1.54583e-20)
(77.8068 0.00517945 -1.54683e-20)
(77.8067 0.00512157 0)
(77.8066 0.00505914 0)
(77.8064 0.00499216 0)
(77.8063 0.00492066 0)
(77.8063 0.00484468 2.63487e-26)
(77.8062 0.00476429 -2.87052e-26)
(77.8061 0.00467956 2.70329e-26)
(77.806 0.00459059 5.6834e-26)
(77.8059 0.00449752 2.76951e-26)
(77.8058 0.00440047 5.60329e-26)
(77.8057 0.00429963 0)
(77.8056 0.00419516 0)
(77.8055 0.00408728 -1.20214e-25)
(77.8055 0.00397621 1.72201e-20)
(77.8054 0.0038622 -1.72274e-20)
(77.8053 0.00374551 0)
(77.8053 0.00362643 0)
(77.8052 0.00350525 1.25635e-25)
(77.8051 0.0033823 -6.55187e-26)
(77.8051 0.0032579 1.76531e-20)
(77.805 0.00313241 -3.53651e-20)
(77.805 0.00300617 1.77119e-20)
(77.8049 0.00287956 -1.77941e-20)
(77.8049 0.00275295 1.77999e-20)
(77.8049 0.00262674 1.26831e-25)
(77.8048 0.0025013 0)
(77.8048 0.00237705 1.28019e-25)
(77.8048 0.00225437 -1.79155e-20)
(77.8048 0.00213367 1.79205e-20)
(77.8047 0.00201534 -2.66126e-25)
(77.8047 0.00189979 1.79226e-20)
(77.8047 0.00178741 -1.17004e-23)
(77.8047 0.00167858 -1.7919e-20)
(77.8047 0.0015737 1.36908e-25)
(77.8047 0.00147315 0)
(77.8047 0.00137728 2.67624e-25)
(77.8047 0.00128648 -8.90374e-21)
(77.8047 0.00120111 8.90493e-21)
(77.8047 0.00112149 0)
(77.8047 0.001048 -8.84706e-21)
(77.8047 0.000980947 8.84866e-21)
(77.8048 0.000920671 -8.80136e-21)
(77.8048 0.00086749 8.80227e-21)
(77.8048 0.000821715 -2.68119e-25)
(77.8048 0.000783652 8.72131e-21)
(77.8048 0.000753596 -8.72276e-21)
(77.8048 0.000731833 0)
(77.8049 0.00071864 -4.31682e-21)
(77.8049 0.00071428 8.61945e-21)
(77.8049 0.000719021 -4.30129e-21)
(77.8049 0.00073314 4.27111e-21)
(77.8049 0.000757166 -4.27133e-21)
(77.805 0.000791321 2.12121e-21)
(77.805 0.000840537 -7.74742e-24)
(77.805 0.000893156 -2.11436e-21)
(77.8051 0.0010259 0)
(77.8191 0.0127538 2.51208e-21)
(77.8191 0.0127735 -1.17131e-23)
(77.8191 0.0127937 -2.55101e-21)
(77.8191 0.0128144 -3.70175e-31)
(77.8191 0.0128355 0)
(77.8191 0.0128571 -2.59901e-21)
(77.8191 0.0128792 5.24195e-21)
(77.819 0.0129018 -2.64277e-21)
(77.819 0.0129249 -6.75987e-30)
(77.819 0.0129485 0)
(77.819 0.0129727 2.68146e-21)
(77.819 0.0129974 -2.70699e-21)
(77.819 0.0130227 1.41582e-29)
(77.819 0.0130485 -1.43199e-29)
(77.819 0.013075 2.73754e-21)
(77.8189 0.013102 -2.76217e-21)
(77.8189 0.0131297 -1.48102e-29)
(77.8189 0.0131579 1.49754e-29)
(77.8189 0.0131868 1.51417e-29)
(77.8189 0.0132164 0)
(77.8189 0.0132466 0)
(77.8188 0.0132776 -1.56464e-29)
(77.8188 0.0133092 1.58169e-29)
(77.8188 0.0133415 0)
(77.8188 0.0133745 0)
(77.8188 0.0134083 -2.75275e-30)
(77.8188 0.0134429 2.8929e-30)
(77.8187 0.0134782 0)
(77.8187 0.0135143 3.3731e-29)
(77.8187 0.0135513 2.84831e-21)
(77.8187 0.013589 -2.86867e-21)
(77.8187 0.0136276 2.74584e-29)
(77.8186 0.0136671 0)
(77.8186 0.0137074 0)
(77.8186 0.0137487 3.59362e-29)
(77.8186 0.0137908 -8.85173e-30)
(77.8185 0.0138339 -9.26097e-30)
(77.8185 0.013878 -2.8269e-21)
(77.8185 0.013923 2.84459e-21)
(77.8185 0.013969 -1.05842e-29)
(77.8184 0.014016 -2.80144e-21)
(77.8184 0.0140641 2.7426e-23)
(77.8184 0.0141132 5.58565e-21)
(77.8184 0.0141634 -5.56016e-21)
(77.8183 0.0142147 2.78111e-21)
(77.8183 0.0142671 0)
(77.8183 0.0143207 -8.16355e-29)
(77.8182 0.0143754 0)
(77.8182 0.0144313 2.68059e-21)
(77.8182 0.0144884 -2.69441e-21)
(77.8181 0.0145467 0)
(77.8181 0.0146063 2.61345e-21)
(77.8181 0.0146672 -2.6262e-21)
(77.818 0.0147293 0)
(77.818 0.0147928 3.98213e-29)
(77.818 0.0148576 0)
(77.8179 0.0149238 0)
(77.8179 0.0149914 0)
(77.8178 0.0150604 4.67707e-29)
(77.8178 0.0151308 -2.36829e-21)
(77.8178 0.0152027 2.37822e-21)
(77.8177 0.0152761 -1.05365e-28)
(77.8177 0.0153509 0)
(77.8176 0.0154273 -1.9836e-28)
(77.8176 0.0155053 -1.18534e-28)
(77.8175 0.0155848 0)
(77.8175 0.0156659 -2.06445e-21)
(77.8174 0.0157486 4.08544e-21)
(77.8174 0.0158329 -2.02067e-21)
(77.8173 0.0159189 4.28217e-28)
(77.8173 0.0160066 0)
(77.8172 0.016096 1.5535e-28)
(77.8172 0.0161871 2.84393e-28)
(77.8171 0.0162798 -4.51951e-28)
(77.817 0.0163744 -1.59721e-21)
(77.817 0.0164707 1.60219e-21)
(77.8169 0.0165687 1.45782e-21)
(77.8169 0.0166686 -1.46218e-21)
(77.8168 0.0167702 4.04993e-28)
(77.8167 0.0168736 1.23012e-21)
(77.8166 0.0169789 -1.23359e-21)
(77.8166 0.0170859 0)
(77.8165 0.0171948 5.1543e-28)
(77.8164 0.0173054 0)
(77.8164 0.0174179 0)
(77.8163 0.0175322 7.02067e-22)
(77.8162 0.0176483 -7.03811e-22)
(77.8161 0.0177662 0)
(77.816 0.0178858 3.98384e-22)
(77.8159 0.0180072 -3.99311e-22)
(77.8158 0.0181304 0)
(77.8158 0.0182552 6.59078e-23)
(77.8157 0.0183818 -6.60532e-23)
(77.8156 0.01851 0)
(77.8155 0.0186398 0)
(77.8154 0.0187712 4.25372e-22)
(77.8153 0.0189041 -4.26229e-22)
(77.8152 0.0190385 -1.03507e-27)
(77.8151 0.0191743 -8.32257e-22)
(77.8149 0.0193115 1.8094e-21)
(77.8148 0.0194499 -9.7737e-22)
(77.8147 0.0195896 0)
(77.8146 0.0197303 -2.91338e-27)
(77.8145 0.0198721 9.73902e-28)
(77.8143 0.0200148 0)
(77.8142 0.0201583 3.08645e-27)
(77.8141 0.0203025 -3.14723e-27)
(77.814 0.0204472 3.20961e-27)
(77.8138 0.0205925 0)
(77.8137 0.020738 0)
(77.8135 0.0208836 0)
(77.8134 0.0210293 0)
(77.8132 0.0211748 1.24878e-26)
(77.8131 0.0213199 -3.42422e-21)
(77.8129 0.0214645 3.42884e-21)
(77.8128 0.0216083 -3.84554e-21)
(77.8126 0.0217511 3.85048e-21)
(77.8125 0.0218928 -4.28522e-21)
(77.8123 0.022033 4.2905e-21)
(77.8121 0.0221716 4.74317e-21)
(77.8119 0.0223083 2.30129e-22)
(77.8118 0.0224428 -4.98459e-21)
(77.8116 0.0225748 -1.47488e-26)
(77.8114 0.0227042 5.71231e-21)
(77.8112 0.0228305 2.46851e-22)
(77.811 0.0229535 -5.97148e-21)
(77.8108 0.0230728 6.48332e-21)
(77.8107 0.0231882 -6.48975e-21)
(77.8105 0.0232994 1.75251e-26)
(77.8103 0.0234059 0)
(77.8101 0.0235075 -7.56372e-21)
(77.8099 0.0236038 7.57058e-21)
(77.8097 0.0236944 -8.12322e-21)
(77.8095 0.0237791 8.13024e-21)
(77.8092 0.0238575 8.69314e-21)
(77.809 0.0239291 -1.76816e-20)
(77.8088 0.0239937 8.98854e-21)
(77.8086 0.0240509 0)
(77.8084 0.0241003 9.85538e-21)
(77.8082 0.0241417 -9.86261e-21)
(77.808 0.0241746 -1.04425e-20)
(77.8078 0.0241988 -2.86434e-22)
(77.8076 0.024214 1.07436e-20)
(77.8074 0.0242197 -1.02146e-25)
(77.8072 0.0242158 9.77554e-28)
(77.8069 0.024202 -5.25525e-26)
(77.8067 0.0241779 0)
(77.8065 0.0241435 5.45795e-26)
(77.8063 0.0240983 0)
(77.8061 0.0240423 0)
(77.8059 0.0239754 0)
(77.8058 0.0238972 1.75089e-25)
(77.8056 0.0238078 -1.18763e-25)
(77.8054 0.023707 -1.41107e-20)
(77.8052 0.0235948 2.8483e-20)
(77.805 0.0234711 -1.43726e-20)
(77.8049 0.023336 0)
(77.8047 0.0231896 0)
(77.8045 0.0230318 1.53216e-20)
(77.8044 0.0228629 -1.53281e-20)
(77.8042 0.0226829 0)
(77.8041 0.022492 -1.32995e-25)
(77.804 0.0222906 0)
(77.8038 0.0220788 -1.31915e-25)
(77.8037 0.0218569 1.3289e-25)
(77.8036 0.0216253 1.66911e-20)
(77.8035 0.0213844 -1.66966e-20)
(77.8034 0.0211345 0)
(77.8033 0.0208761 1.71416e-20)
(77.8032 0.0206097 -1.71473e-20)
(77.8032 0.0203357 2.83456e-25)
(77.8031 0.0200548 -1.75052e-20)
(77.803 0.0197674 1.75104e-20)
(77.803 0.0194741 0)
(77.8029 0.0191757 -8.89163e-21)
(77.8029 0.0188727 -3.41053e-23)
(77.8029 0.0185657 8.93002e-21)
(77.8028 0.0182555 8.98661e-21)
(77.8028 0.0179428 -8.98883e-21)
(77.8028 0.0176283 9.02791e-21)
(77.8028 0.0173128 1.29845e-23)
(77.8028 0.0169969 -9.04432e-21)
(77.8028 0.0166816 -9.05775e-21)
(77.8028 0.0163675 3.13662e-25)
(77.8029 0.0160556 9.06237e-21)
(77.8029 0.0157465 0)
(77.8029 0.0154411 9.04381e-21)
(77.803 0.0151404 -9.04611e-21)
(77.803 0.0148451 -9.0167e-21)
(77.8031 0.0145561 9.01824e-21)
(77.8031 0.0142744 5.54043e-25)
(77.8032 0.0140007 0)
(77.8032 0.0137361 0)
(77.8033 0.0134815 0)
(77.8034 0.0132378 -5.4703e-25)
(77.8034 0.013006 -5.45075e-25)
(77.8035 0.0127875 0)
(77.8036 0.012583 2.1931e-21)
(77.8037 0.0123958 -8.07576e-24)
(77.8037 0.0122216 -2.18402e-21)
(77.8038 0.0120886 0)
(77.8037 0.0118985 0)
(77.8196 0.00496966 0)
(77.8196 0.00498086 -1.29955e-21)
(77.8196 0.00499268 1.31359e-21)
(77.8196 0.00500489 -5.80872e-30)
(77.8196 0.00501736 -1.33921e-21)
(77.8196 0.0050301 1.35312e-21)
(77.8196 0.00504313 1.36564e-21)
(77.8196 0.00505647 -1.37946e-21)
(77.8196 0.00507012 -1.39181e-21)
(77.8196 0.00508409 2.81034e-21)
(77.8196 0.00509837 -1.41847e-21)
(77.8196 0.00511299 -6.66291e-31)
(77.8196 0.00512795 0)
(77.8196 0.00514324 1.29977e-29)
(77.8196 0.0051589 -1.46902e-21)
(77.8196 0.00517491 1.48233e-21)
(77.8196 0.00519129 -1.30956e-29)
(77.8196 0.00520805 1.31182e-29)
(77.8196 0.00522519 -1.31354e-29)
(77.8196 0.00524272 -1.53173e-21)
(77.8196 0.00526066 5.28434e-25)
(77.8196 0.00527901 1.55689e-21)
(77.8196 0.00529778 0)
(77.8196 0.00531698 1.31337e-29)
(77.8196 0.00533662 0)
(77.8196 0.0053567 -2.32909e-29)
(77.8196 0.00537724 1.61708e-21)
(77.8196 0.00539825 -1.62929e-21)
(77.8196 0.00541974 -2.59312e-29)
(77.8196 0.00544171 -1.65293e-21)
(77.8196 0.00546418 1.66483e-21)
(77.8196 0.00548716 -1.7828e-29)
(77.8196 0.00551066 3.37695e-21)
(77.8196 0.00553468 4.70623e-25)
(77.8196 0.00555925 -3.42347e-21)
(77.8196 0.00558436 9.28197e-30)
(77.8196 0.00561004 3.47129e-21)
(77.8196 0.00563629 -3.49353e-21)
(77.8196 0.00566313 2.40002e-29)
(77.8196 0.00569056 -1.25963e-29)
(77.8196 0.00571859 3.56594e-21)
(77.8196 0.00574725 -7.17704e-21)
(77.8196 0.00577653 3.61087e-21)
(77.8196 0.00580646 -3.63781e-21)
(77.8196 0.00583704 -3.6018e-24)
(77.8196 0.00586829 3.68245e-21)
(77.8196 0.00590022 -3.71109e-21)
(77.8196 0.00593283 7.46699e-21)
(77.8196 0.00596615 -3.75567e-21)
(77.8196 0.00600018 0)
(77.8196 0.00603494 3.81222e-21)
(77.8196 0.00607044 -3.83127e-21)
(77.8196 0.00610668 -3.8648e-21)
(77.8196 0.00614369 -8.30166e-24)
(77.8196 0.00618147 3.91011e-21)
(77.8196 0.00622004 0)
(77.8196 0.0062594 -5.72482e-29)
(77.8195 0.00629957 0)
(77.8195 0.00634056 -4.90816e-29)
(77.8195 0.00638238 5.10768e-29)
(77.8195 0.00642504 0)
(77.8195 0.00646855 -4.12735e-21)
(77.8195 0.00651292 4.1441e-21)
(77.8195 0.00655815 -2.94446e-29)
(77.8195 0.00660427 1.24409e-28)
(77.8195 0.00665127 4.26361e-21)
(77.8194 0.00669917 -8.5798e-21)
(77.8194 0.00674797 8.65388e-21)
(77.8194 0.00679768 -4.35352e-21)
(77.8194 0.0068483 4.66792e-30)
(77.8194 0.00689984 -1.6923e-29)
(77.8193 0.0069523 4.50118e-21)
(77.8193 0.00700569 -4.51617e-21)
(77.8193 0.00706 5.68654e-29)
(77.8193 0.00711524 1.82812e-28)
(77.8192 0.00717141 3.79738e-28)
(77.8192 0.00722851 -4.73889e-21)
(77.8192 0.00728653 4.75315e-21)
(77.8192 0.00734546 -4.84643e-21)
(77.8191 0.0074053 4.86042e-21)
(77.8191 0.00746605 4.96209e-21)
(77.8191 0.00752769 -9.99904e-21)
(77.819 0.0075902 5.03683e-21)
(77.819 0.00765359 -5.15242e-21)
(77.8189 0.00771781 1.03866e-20)
(77.8189 0.00778287 -5.23404e-21)
(77.8189 0.00784873 -5.36523e-21)
(77.8188 0.00791537 5.37834e-21)
(77.8188 0.00798277 -6.15427e-28)
(77.8187 0.00805089 0)
(77.8186 0.00811969 -7.93046e-28)
(77.8186 0.00818914 -8.47774e-28)
(77.8185 0.00825921 5.86916e-21)
(77.8185 0.00832983 8.27336e-23)
(77.8184 0.00840097 8.63284e-23)
(77.8183 0.00847256 -1.22418e-20)
(77.8183 0.00854456 1.24505e-20)
(77.8182 0.00861689 -1.26667e-20)
(77.8181 0.00868949 6.39455e-21)
(77.818 0.00876229 -1.82402e-27)
(77.818 0.00883521 1.88886e-27)
(77.8179 0.00890816 -3.0203e-27)
(77.8178 0.00898106 -6.99385e-21)
(77.8177 0.00905381 -1.23138e-22)
(77.8176 0.00912631 7.14114e-21)
(77.8175 0.00919845 -7.41317e-21)
(77.8174 0.00927012 1.49873e-20)
(77.8173 0.0093412 -1.52901e-20)
(77.8172 0.00941156 7.72788e-21)
(77.8171 0.00948107 0)
(77.817 0.00954958 0)
(77.8169 0.00961697 -4.82705e-27)
(77.8167 0.00968306 -5.66599e-27)
(77.8166 0.00974769 5.85277e-27)
(77.8165 0.00981071 -8.9296e-21)
(77.8164 0.00987194 8.94138e-21)
(77.8162 0.00993119 1.83036e-26)
(77.8161 0.00998829 5.68961e-27)
(77.8159 0.010043 0)
(77.8158 0.0100952 -1.4144e-26)
(77.8157 0.0101447 -1.01645e-20)
(77.8155 0.0101911 1.01762e-20)
(77.8153 0.0102344 1.06149e-20)
(77.8152 0.0102743 -1.06266e-20)
(77.815 0.0103106 0)
(77.8149 0.0103431 -1.13241e-20)
(77.8147 0.0103714 2.29044e-20)
(77.8145 0.0103955 -2.33977e-20)
(77.8143 0.0104151 -2.40743e-22)
(77.8142 0.0104299 1.20811e-20)
(77.814 0.0104397 1.93557e-26)
(77.8138 0.0104443 -3.99885e-26)
(77.8136 0.0104435 0)
(77.8134 0.0104371 0)
(77.8133 0.0104248 0)
(77.8131 0.0104064 -4.48791e-26)
(77.8129 0.0103819 4.53082e-26)
(77.8127 0.0103509 0)
(77.8125 0.0103133 -4.75082e-26)
(77.8123 0.0102689 -9.8458e-26)
(77.8121 0.0102177 -1.52715e-20)
(77.8119 0.0101595 -2.59176e-22)
(77.8117 0.0100941 1.55521e-20)
(77.8116 0.0100215 -5.65298e-26)
(77.8114 0.0099417 -5.78604e-26)
(77.8112 0.00985454 5.51825e-26)
(77.811 0.00976004 0)
(77.8108 0.0096582 -1.71102e-20)
(77.8107 0.00954905 3.44783e-20)
(77.8105 0.00943265 -1.73679e-20)
(77.8103 0.00930907 -1.78381e-20)
(77.8101 0.00917844 1.78476e-20)
(77.81 0.00904089 1.24702e-25)
(77.8098 0.00889659 1.26593e-25)
(77.8097 0.00874574 2.62431e-25)
(77.8095 0.00858856 1.89206e-20)
(77.8094 0.00842531 -1.89294e-20)
(77.8093 0.00825628 0)
(77.8091 0.00808177 0)
(77.809 0.00790213 1.96358e-20)
(77.8089 0.00771773 -1.96441e-20)
(77.8088 0.00752895 1.39636e-25)
(77.8087 0.00733621 -2.00705e-20)
(77.8086 0.00713994 2.00777e-20)
(77.8085 0.0069406 0)
(77.8084 0.00673868 2.04096e-20)
(77.8083 0.00653465 -2.04168e-20)
(77.8083 0.00632904 0)
(77.8082 0.00612235 -1.03261e-20)
(77.8082 0.00591513 1.03286e-20)
(77.8081 0.00570791 -1.03794e-20)
(77.8081 0.00550124 1.0382e-20)
(77.808 0.00529568 0)
(77.808 0.00509177 6.22566e-25)
(77.808 0.00489008 3.01607e-25)
(77.808 0.00469116 -1.04226e-20)
(77.808 0.00449556 1.04249e-20)
(77.808 0.00430383 0)
(77.808 0.00411652 6.24321e-25)
(77.808 0.00393417 0)
(77.808 0.0037573 -1.03491e-20)
(77.808 0.00358645 1.03503e-20)
(77.8081 0.00342212 -6.0528e-25)
(77.8081 0.00326483 -6.04376e-25)
(77.8081 0.00311508 -6.03246e-25)
(77.8082 0.00297337 0)
(77.8082 0.00284019 -1.01337e-20)
(77.8083 0.00271603 1.0136e-20)
(77.8083 0.00260137 0)
(77.8084 0.0024967 0)
(77.8084 0.00240251 4.9671e-21)
(77.8085 0.00231931 -4.96746e-21)
(77.8085 0.00224762 0)
(77.8086 0.00218798 0)
(77.8086 0.00214098 4.85279e-21)
(77.8087 0.0021073 -4.85061e-21)
(77.8088 0.00208769 -2.39536e-21)
(77.8088 0.00208327 2.39425e-21)
(77.8089 0.00209474 0)
(77.809 0.00212726 0)
(77.809 0.00216888 2.26111e-24)
(77.8092 0.00229217 0)
(77.8264 0.0117463 -2.10842e-21)
(77.8264 0.0117695 -6.40358e-30)
(77.8264 0.0117933 2.08493e-29)
(77.8264 0.0118177 2.16559e-21)
(77.8264 0.0118427 -4.37269e-21)
(77.8264 0.0118682 4.40936e-21)
(77.8264 0.0118943 -2.22507e-21)
(77.8264 0.0119209 4.35433e-29)
(77.8263 0.0119482 -2.25536e-21)
(77.8263 0.0119761 4.55012e-21)
(77.8263 0.0120045 -2.29463e-21)
(77.8263 0.0120337 -4.49012e-29)
(77.8263 0.0120635 0)
(77.8263 0.0120939 -2.33723e-21)
(77.8263 0.012125 2.35883e-21)
(77.8262 0.0121569 -4.61477e-29)
(77.8262 0.0121894 1.37195e-29)
(77.8262 0.0122226 -1.37439e-29)
(77.8262 0.0122566 6.07609e-29)
(77.8262 0.0122914 2.42276e-21)
(77.8262 0.0123269 -2.44328e-21)
(77.8262 0.0123632 0)
(77.8261 0.0124003 -2.4595e-21)
(77.8261 0.0124382 2.47939e-21)
(77.8261 0.012477 -2.4815e-21)
(77.8261 0.0125166 2.50096e-21)
(77.8261 0.0125571 9.76882e-29)
(77.826 0.0125985 2.72831e-29)
(77.826 0.0126407 2.7183e-29)
(77.826 0.0126839 2.52697e-21)
(77.826 0.0127281 -2.54527e-21)
(77.826 0.0127732 2.67809e-29)
(77.8259 0.0128193 -2.54713e-21)
(77.8259 0.0128663 5.11727e-21)
(77.8259 0.0129144 -2.56989e-21)
(77.8259 0.0129635 0)
(77.8258 0.0130137 -2.56486e-21)
(77.8258 0.013065 1.38439e-23)
(77.8258 0.0131173 5.15333e-21)
(77.8258 0.0131708 -1.47921e-23)
(77.8257 0.0132254 -2.58646e-21)
(77.8257 0.0132812 2.48695e-28)
(77.8257 0.0133381 2.56971e-21)
(77.8257 0.0133962 -5.15241e-21)
(77.8256 0.0134556 2.58242e-21)
(77.8256 0.0135161 2.56134e-21)
(77.8256 0.013578 -5.13227e-21)
(77.8255 0.0136411 5.12207e-21)
(77.8255 0.0137055 -2.56497e-21)
(77.8255 0.0137713 0)
(77.8254 0.0138384 -3.91633e-29)
(77.8254 0.0139068 0)
(77.8254 0.0139767 -3.64256e-29)
(77.8253 0.0140479 0)
(77.8253 0.0141206 0)
(77.8252 0.0141947 0)
(77.8252 0.0142703 6.00716e-29)
(77.8251 0.0143474 -2.44335e-21)
(77.8251 0.0144259 2.45412e-21)
(77.8251 0.014506 0)
(77.825 0.0145877 3.62892e-28)
(77.825 0.0146709 3.58709e-28)
(77.8249 0.0147557 2.34769e-21)
(77.8249 0.014842 -4.68189e-21)
(77.8248 0.01493 2.33392e-21)
(77.8248 0.0150196 2.07285e-29)
(77.8247 0.0151109 6.51936e-28)
(77.8246 0.0152038 9.63241e-30)
(77.8246 0.0152984 3.7187e-30)
(77.8245 0.0153946 2.15846e-21)
(77.8245 0.0154926 -4.29158e-21)
(77.8244 0.0155922 4.17015e-23)
(77.8243 0.0156936 2.09815e-21)
(77.8243 0.0157966 -2.01741e-21)
(77.8242 0.0159014 2.02389e-21)
(77.8241 0.0160079 -1.93691e-21)
(77.8241 0.0161161 1.94289e-21)
(77.824 0.016226 6.22553e-28)
(77.8239 0.0163376 1.80276e-21)
(77.8238 0.0164509 -1.80799e-21)
(77.8237 0.0165659 -1.70387e-21)
(77.8237 0.0166826 3.36006e-21)
(77.8236 0.0168009 -1.65595e-21)
(77.8235 0.0169209 1.5404e-21)
(77.8234 0.0170426 -1.54442e-21)
(77.8233 0.0171658 0)
(77.8232 0.0172906 0)
(77.8231 0.0174169 2.58417e-21)
(77.823 0.0175447 -2.59038e-21)
(77.8229 0.017674 0)
(77.8228 0.0178047 8.32634e-28)
(77.8227 0.0179367 6.3601e-28)
(77.8226 0.0180701 1.85639e-21)
(77.8224 0.0182046 -1.8604e-21)
(77.8223 0.0183404 -7.25059e-29)
(77.8222 0.0184773 8.33483e-29)
(77.8221 0.0186151 -1.20912e-27)
(77.8219 0.0187539 -8.67914e-28)
(77.8218 0.0188936 8.08301e-22)
(77.8217 0.019034 -1.96243e-22)
(77.8215 0.019175 -6.14726e-22)
(77.8214 0.0193165 3.17133e-27)
(77.8212 0.0194584 1.33501e-27)
(77.8211 0.0196005 -2.26148e-22)
(77.8209 0.0197428 2.26526e-22)
(77.8208 0.0198851 -3.86483e-27)
(77.8206 0.0200271 4.05156e-27)
(77.8204 0.0201689 1.8291e-27)
(77.8202 0.02031 -4.44155e-27)
(77.8201 0.0204505 -1.67741e-21)
(77.8199 0.0205901 1.67989e-21)
(77.8197 0.0207286 5.06866e-27)
(77.8195 0.0208657 -2.49268e-21)
(77.8193 0.0210013 2.49613e-21)
(77.8191 0.0211351 -1.9905e-26)
(77.8189 0.021267 0)
(77.8187 0.0213965 -3.67362e-21)
(77.8185 0.0215236 -3.07164e-22)
(77.8183 0.0216478 8.29403e-21)
(77.8181 0.021769 -4.30888e-21)
(77.8178 0.0218869 0)
(77.8176 0.0220011 0)
(77.8174 0.0221114 0)
(77.8172 0.0222175 1.61724e-26)
(77.8169 0.022319 -2.92887e-26)
(77.8167 0.0224157 1.73273e-26)
(77.8164 0.0225072 1.79187e-26)
(77.8162 0.0225932 3.70375e-26)
(77.8159 0.0226734 0)
(77.8157 0.0227475 0)
(77.8154 0.0228151 -4.07318e-26)
(77.8152 0.0228759 2.68462e-27)
(77.8149 0.0229297 0)
(77.8147 0.022976 4.22949e-26)
(77.8144 0.0230146 1.01292e-20)
(77.8142 0.0230452 -2.06612e-20)
(77.8139 0.0230675 1.05322e-20)
(77.8136 0.0230812 0)
(77.8134 0.0230861 0)
(77.8131 0.0230819 5.2341e-26)
(77.8129 0.0230683 -1.05765e-25)
(77.8126 0.0230451 -1.28935e-20)
(77.8123 0.0230122 1.29023e-20)
(77.8121 0.0229694 3.44453e-28)
(77.8118 0.0229164 1.17565e-25)
(77.8116 0.0228532 1.20468e-25)
(77.8114 0.0227796 -1.48046e-20)
(77.8111 0.0226956 1.48133e-20)
(77.8109 0.0226011 1.5533e-20)
(77.8106 0.0224961 3.44881e-22)
(77.8104 0.0223806 -1.58956e-20)
(77.8102 0.0222545 1.36613e-25)
(77.81 0.0221181 0)
(77.8098 0.0219712 0)
(77.8096 0.0218142 1.75276e-20)