/*--------------------------------*- C++ -*----------------------------------*\
  =========                 |
  \\      /  F ield         | OpenFOAM: The Open Source CFD Toolbox
   \\    /   O peration     | Website:  https://openfoam.org
    \\  /    A nd           | Version:  7
     \\/     M anipulation  |
\*---------------------------------------------------------------------------*/
FoamFile
{
    version     2.0;
    format      ascii;
    class       volVectorField;
    location    "1";
    object      wallShearStress;
}
// * * * * * * * * * * * * * * * * * * * * * * * * * * * * * * * * * * * * * //

dimensions      [0 2 -2 0 0 0 0];

internalField   uniform (0 0 0);

boundaryField
{
    frontAndBack
    {
        type            empty;
    }
    farfield
    {
        type            calculated;
        value           uniform (0 0 0);
    }
    airfoil
    {
        type            calculated;
        value           nonuniform List<vector> 
341
(
(-16.7572 -0.413329 4.14199e-23)
(-19.3033 -0.48584 1.18297e-22)
(-18.7859 -0.321879 3.32513e-18)
(-17.7852 -0.183231 -5.22728e-24)
(-17.4739 -0.131574 -6.65692e-22)
(-17.5136 -0.0834889 4.18034e-22)
(-17.4709 -0.0302605 -2.08519e-19)
(-17.3484 0.033571 -8.50688e-19)
(-17.1077 0.0943799 -8.83308e-19)
(-16.9137 0.145439 8.6877e-19)
(-16.7701 0.193773 1.67644e-21)
(-16.6175 0.23821 1.6942e-18)
(-16.4855 0.280344 -3.34859e-18)
(-16.3665 0.322264 8.23739e-22)
(-16.2177 0.362053 -1.03641e-23)
(-16.0617 0.398472 3.31054e-18)
(-15.934 0.433416 -3.26985e-18)
(-15.8162 0.465944 -7.94746e-22)
(-15.7092 0.497198 7.64907e-35)
(-15.5865 0.528833 -7.81734e-22)
(-15.4558 0.557887 -3.18472e-18)
(-15.334 0.585205 6.29814e-18)
(-15.2189 0.610486 1.02856e-38)
(-15.12 0.634727 6.16208e-18)
(-15.0301 0.659579 -7.5834e-22)
(-14.9201 0.683578 -3.40893e-34)
(-14.7999 0.704807 6.04147e-18)
(-14.6933 0.725317 7.52316e-37)
(-14.5962 0.744603 9.99531e-38)
(-14.5155 0.763434 3.80314e-38)
(-14.4325 0.78272 1.41487e-21)
(-14.3306 0.800751 5.77423e-18)
(-14.226 0.817091 5.71043e-18)
(-14.1326 0.832901 -5.65115e-18)
(-14.0472 0.847839 1.18382e-34)
(-13.9703 0.861981 -5.54149e-18)
(-13.8985 0.876971 1.45761e-36)
(-13.8101 0.891419 -1.31682e-21)
(-13.7157 0.903991 5.38041e-18)
(-13.6297 0.916189 -1.16891e-21)
(-13.5495 0.927525 -3.29138e-37)
(-13.4773 0.938371 5.21946e-18)
(-13.4157 0.949782 -1.26806e-21)
(-13.3421 0.96165 -5.08979e-18)
(-13.2567 0.971487 -5.03623e-18)
(-13.1753 0.980806 -4.98371e-18)
(-13.0998 0.9896 -2.21369e-34)
(-13.0312 0.998066 4.88371e-18)
(-12.9718 1.00647 4.83317e-18)
(-12.9125 1.01589 -4.70198e-38)
(-12.8393 1.02426 1.88079e-37)
(-12.7622 1.03138 -4.63413e-18)
(-12.6905 1.03837 1.10926e-21)
(-12.6246 1.04515 -1.11782e-21)
(-12.5627 1.0515 4.49152e-18)
(-12.5098 1.05847 8.82177e-18)
(-12.4485 1.06597 1.88079e-36)
(-12.3747 1.0716 7.05297e-37)
(-12.3041 1.077 4.22127e-18)
(-12.2386 1.08219 8.34526e-18)
(-12.1778 1.08712 -4.12632e-18)
(-12.1229 1.09194 1.9924e-21)
(-12.0741 1.09756 -3.9653e-18)
(-12.0146 1.10318 -1.55204e-22)
(-11.9467 1.10724 3.99186e-34)
(-11.8829 1.11134 8.98894e-38)
(-11.8233 1.11529 -6.58277e-37)
(-11.7671 1.11899 -7.38346e-18)
(-11.7175 1.1229 1.06184e-21)
(-11.6698 1.12757 -8.43169e-22)
(-11.6115 1.13179 3.43385e-18)
(-11.5493 1.13498 3.38078e-18)
(-11.492 1.1383 -1.41059e-37)
(-11.4396 1.14161 2.1237e-39)
(-11.3915 1.14482 -7.76834e-22)
(-11.3522 1.14859 -6.32834e-18)
(-11.3125 1.15325 -3.00044e-18)
(-11.259 1.15673 2.94524e-18)
(-11.1996 1.15909 3.86826e-35)
(-11.1408 1.16111 2.8315e-18)
(-11.0833 1.1628 2.77428e-18)
(-11.0279 1.1642 -2.64486e-38)
(-10.9781 1.166 2.62274e-18)
(-10.9234 1.16838 2.47841e-18)
(-10.8576 1.16944 -1.12951e-23)
(-10.7915 1.17008 -2.35215e-18)
(-10.7283 1.17067 -2.28701e-18)
(-10.6678 1.17111 -2.22115e-18)
(-10.6104 1.17149 -2.69014e-22)
(-10.5569 1.17247 2.40429e-22)
(-10.4943 1.17357 1.90333e-18)
(-10.4227 1.17318 -1.8294e-18)
(-10.3537 1.17266 -5.66365e-23)
(-10.2881 1.17205 -1.98317e-22)
(-10.2257 1.1713 1.5976e-18)
(-10.1698 1.17091 -1.511e-18)
(-10.1118 1.17132 4.46688e-37)
(-10.0405 1.17062 -1.19632e-23)
(-9.96731 1.16914 -1.48722e-22)
(-9.89849 1.16769 -1.07023e-18)
(-9.83327 1.16608 -1.25887e-22)
(-9.77374 1.16463 4.70198e-38)
(-9.71867 1.16412 -1.45871e-18)
(-9.65267 1.16351 1.49311e-22)
(-9.5775 1.16126 5.02762e-19)
(-9.50314 1.15869 3.88861e-19)
(-9.42892 1.15559 -2.70763e-19)
(-9.35592 1.1521 2.59169e-23)
(-9.28372 1.14912 2.64486e-38)
(-9.19583 1.14559 1.10126e-19)
(-9.09595 1.13983 -2.48759e-19)
(-9.00098 1.13409 3.93805e-19)
(-8.90837 1.12785 5.45127e-19)
(-8.82414 1.122 -7.01661e-19)
(-8.73544 1.11692 -5.28972e-38)
(-8.62478 1.10976 -9.56067e-19)
(-8.50953 1.10106 1.13887e-18)
(-8.40062 1.09234 -1.33156e-18)
(-8.29769 1.08345 -1.53491e-18)
(-8.19726 1.07548 3.17136e-18)
(-8.07324 1.06599 -3.52769e-18)
(-7.93779 1.05399 2.00366e-18)
(-7.80808 1.04179 -1.32355e-22)
(-7.68828 1.02989 -2.50313e-18)
(-7.55858 1.01832 0)
(-7.39797 1.00317 -1.73936e-22)
(-7.23445 0.986188 1.82138e-22)
(-7.08408 0.969576 -1.72888e-18)
(-6.92949 0.953555 6.51533e-18)
(-6.72524 0.931886 -2.16306e-22)
(-6.52979 0.909296 1.8018e-34)
(-6.31588 0.882591 -8.46258e-18)
(-6.14266 0.864219 1.3613e-22)
(-5.7576 0.814136 2.53784e-18)
(-5.70901 0.810869 1.45574e-22)
(-4.89173 0.700229 -5.52347e-18)
(-5.44769 0.779315 -1.88079e-37)
(-2.08505 0.793529 -3.76013e-21)
(-20.5461 -69.7765 1.43517e-16)
(-55.9522 -65.2198 -1.44577e-16)
(-47.5071 -34.908 -2.21855e-17)
(-36.1545 -19.7772 -2.88672e-17)
(-29.5562 -13.0899 -8.40222e-21)
(-25.544 -9.55453 -3.67342e-40)
(-23.5673 -7.61862 3.39367e-22)
(-23.074 -6.57127 -1.08418e-21)
(-22.9053 -5.80574 4.9565e-17)
(-23.1246 -5.27054 1.55904e-21)
(-23.1837 -4.78627 -8.14754e-22)
(-23.2923 -4.36906 -2.64274e-17)
(-23.4075 -4.00489 6.9802e-22)
(-23.5364 -3.68975 -2.80416e-17)
(-23.5793 -3.3842 8.46436e-22)
(-23.4782 -3.08985 -8.97604e-22)
(-23.2894 -2.81905 5.76719e-17)
(-22.9584 -2.54752 2.83255e-17)
(-22.6035 -2.29948 -1.58363e-34)
(-22.213 -2.07395 8.47287e-22)
(-21.8304 -1.86494 -1.44594e-17)
(-21.4509 -1.67225 -1.81045e-33)
(-21.0855 -1.49716 1.4938e-17)
(-20.7486 -1.33899 -8.97621e-22)
(-20.4291 -1.19201 -1.4496e-17)
(-20.1075 -1.03854 -4.41021e-22)
(-19.4679 -0.863691 -1.34436e-17)
(-19.1435 -0.768709 -6.69694e-18)
(-19.1788 -0.726906 2.35219e-22)
(-19.9711 -0.671049 -2.07528e-22)
(-17.5659 -0.257359 -3.46349e-23)
(-20.4815 69.5454 1.43559e-16)
(-56.9813 66.3655 -1.46007e-16)
(-47.1624 34.6381 -4.72638e-20)
(-35.613 19.47 2.82863e-17)
(-29.129 12.8937 2.93011e-17)
(-25.7604 9.63439 2.50868e-22)
(-24.171 7.818 7.52316e-37)
(-23.3898 6.65114 4.69765e-17)
(-23.1368 5.8689 -1.57835e-21)
(-22.98 5.23745 7.9111e-22)
(-22.9044 4.7283 -1.64585e-21)
(-22.9665 4.30794 2.64696e-17)
(-23.1445 3.95933 2.84377e-17)
(-23.3444 3.65943 2.80655e-17)
(-23.4802 3.36958 -2.77104e-17)
(-23.4273 3.08318 8.72593e-34)
(-23.2819 2.81797 -2.87987e-17)
(-22.9613 2.54802 -2.83382e-17)
(-22.6206 2.30123 -1.48831e-17)
(-22.2242 2.07526 -1.47283e-17)
(-21.8472 1.86647 8.80051e-22)
(-21.46 1.67326 -8.96237e-22)
(-21.0998 1.49832 1.49236e-17)
(-20.7569 1.33986 -4.50189e-22)
(-20.4415 1.1929 9.40395e-38)
(-20.116 1.03934 -7.20268e-18)
(-19.4766 0.864653 6.71565e-18)
(-19.1522 0.769675 6.69702e-18)
(-19.1738 0.726868 -2.77605e-34)
(-19.998 0.670869 -5.31565e-23)
(-17.5495 0.260036 7.23761e-23)
(-16.7454 0.416443 3.66121e-18)
(-19.3048 0.487845 1.16586e-22)
(-18.845 0.333073 2.11731e-34)
(-17.8418 0.18899 2.66573e-35)
(-17.4816 0.135928 -9.3523e-19)
(-17.5289 0.0889551 4.24838e-22)
(-17.4744 0.0380065 -4.17823e-22)
(-17.3922 -0.0232357 -4.18585e-22)
(-17.1727 -0.0857855 9.03919e-19)
(-16.9566 -0.136169 8.9032e-19)
(-16.8241 -0.184576 -1.75817e-18)
(-16.6847 -0.229256 -1.73562e-18)
(-16.5503 -0.271143 1.71491e-18)
(-16.4284 -0.311659 -1.72672e-18)
(-16.2996 -0.35238 -3.4382e-18)
(-16.1518 -0.389421 -8.23852e-22)
(-16.0139 -0.424047 3.35602e-18)
(-15.8901 -0.456574 -1.64569e-37)
(-15.7913 -0.487841 -4.55304e-34)
(-15.6842 -0.519501 3.30907e-18)
(-15.5504 -0.548746 -8.69866e-37)
(-15.4237 -0.576224 -3.23174e-18)
(-15.3113 -0.602277 -3.19791e-18)
(-15.2102 -0.626822 7.77435e-22)
(-15.1198 -0.650357 -3.14864e-18)
(-15.0197 -0.674826 -6.27755e-18)
(-14.9019 -0.69689 -7.52669e-22)
(-14.795 -0.717985 7.54975e-22)
(-14.696 -0.737786 6.07848e-18)
(-14.6009 -0.755981 6.01498e-18)
(-14.5252 -0.774406 5.9742e-18)
(-14.4375 -0.793496 5.93983e-18)
(-14.3367 -0.810764 -1.17533e-17)
(-14.2384 -0.826848 1.16344e-17)
(-14.1453 -0.841744 -7.07978e-22)
(-14.0632 -0.856176 5.70021e-18)
(-13.9923 -0.870154 6.84571e-22)
(-13.9214 -0.885338 -9.8096e-24)
(-13.832 -0.899089 -7.94828e-22)
(-13.7387 -0.911225 7.82316e-22)
(-13.6551 -0.923069 1.08536e-17)
(-13.5788 -0.934286 5.37596e-18)
(-13.5099 -0.944955 -5.32574e-18)
(-13.4516 -0.956366 1.2933e-21)
(-13.3786 -0.967969 1.25842e-21)
(-13.293 -0.977416 5.1405e-18)
(-13.215 -0.986787 -5.08997e-18)
(-13.1426 -0.99559 2.46002e-21)
(-13.0764 -1.00397 -1.35534e-21)
(-13.02 -1.01239 -1.01187e-34)
(-12.963 -1.02151 4.83848e-18)
(-12.8925 -1.02993 -1.15913e-21)
(-12.8189 -1.03727 -4.73681e-18)
(-12.7504 -1.04442 -4.68871e-18)
(-12.6871 -1.05126 1.12297e-21)
(-12.6289 -1.05786 -4.5958e-18)
(-12.5784 -1.06464 4.66154e-34)
(-12.5234 -1.07223 4.42134e-18)
(-12.4566 -1.07859 2.13523e-21)
(-12.3911 -1.08444 -1.20054e-21)
(-12.3297 -1.08998 -4.2758e-18)
(-12.2753 -1.09554 2.03029e-23)
(-12.225 -1.10079 1.03092e-21)
(-12.183 -1.10644 -8.20062e-18)
(-12.1362 -1.11298 -9.63607e-22)
(-12.0756 -1.11791 3.93843e-18)
(-12.0138 -1.12227 -3.8867e-18)
(-11.9535 -1.12623 -1.41123e-21)
(-11.8968 -1.13003 -3.79064e-18)
(-11.8421 -1.13346 -3.74449e-18)
(-11.7934 -1.13728 -1.69271e-36)
(-11.7387 -1.14174 3.53281e-18)
(-11.6733 -1.14478 3.48079e-18)
(-11.6094 -1.14757 9.76476e-22)
(-11.5483 -1.15012 -5.5806e-22)
(-11.4914 -1.15264 -3.32536e-18)
(-11.437 -1.15489 -3.27435e-18)
(-11.3884 -1.1576 3.16944e-18)
(-11.3337 -1.1609 -7.43645e-22)
(-11.2683 -1.16277 2.99081e-18)
(-11.2051 -1.16449 -3.52642e-22)
(-11.1439 -1.16592 3.56625e-22)
(-11.087 -1.16738 3.38619e-22)
(-11.0328 -1.16866 -6.74387e-22)
(-10.9833 -1.17038 3.27933e-22)
(-10.9274 -1.1726 5.03895e-18)
(-10.8619 -1.17345 -2.45653e-18)
(-10.7985 -1.1742 -2.86259e-22)
(-10.7373 -1.17477 4.65446e-18)
(-10.679 -1.17525 2.26137e-18)
(-10.6244 -1.17575 2.73879e-22)
(-10.5728 -1.17683 -2.04916e-18)
(-10.5115 -1.17792 -5.87747e-39)
(-10.4426 -1.17768 -1.86623e-18)
(-10.3771 -1.17744 -2.24787e-22)
(-10.3148 -1.17708 -1.71305e-18)
(-10.2555 -1.17654 1.93112e-22)
(-10.2029 -1.17639 1.55359e-18)
(-10.1499 -1.17705 1.61755e-22)
(-10.0838 -1.17691 1.2895e-18)
(-10.0145 -1.17581 -1.34776e-23)
(-9.94993 -1.17481 1.10622e-18)
(-9.88905 -1.17369 -4.21767e-35)
(-9.83039 -1.17231 1.04501e-22)
(-9.77503 -1.17133 -1.02145e-22)
(-9.70785 -1.17036 -3.19734e-36)
(-9.62641 -1.16734 -5.42327e-19)
(-9.54555 -1.16395 -8.59329e-19)
(-9.46734 -1.16038 -3.05621e-23)
(-9.39052 -1.15642 -1.92481e-19)
(-9.32012 -1.15308 1.34961e-22)
(-9.23879 -1.14997 1.27056e-19)
(-9.14165 -1.14472 1.64472e-23)
(-9.04612 -1.13903 -3.332e-23)
(-8.95407 -1.13305 1.79946e-35)
(-8.86581 -1.12681 -9.29011e-36)
(-8.78439 -1.12149 -4.70198e-38)
(-8.68679 -1.11593 8.89396e-19)
(-8.57229 -1.1076 1.90798e-22)
(-8.46364 -1.09925 1.25407e-18)
(-8.35769 -1.09032 -1.45128e-18)
(-8.26185 -1.08202 -4.70198e-38)
(-8.15554 -1.07413 1.39602e-34)
(-8.02495 -1.06328 -1.8931e-18)
(-7.89543 -1.0516 -2.13853e-18)
(-7.76962 -1.03939 1.40912e-22)
(-7.65377 -1.02797 -2.52785e-18)
(-7.5178 -1.01603 2.58075e-18)
(-7.35603 -1.00012 2.89848e-18)
(-7.19878 -0.983499 -9.45557e-23)
(-7.05405 -0.967284 -3.93572e-38)
(-6.89553 -0.951281 1.99009e-38)
(-6.68857 -0.928647 0)
(-6.50287 -0.906903 3.44837e-38)
(-6.29068 -0.880438 9.40395e-38)
(-6.11505 -0.86163 -4.52255e-18)
(-5.73652 -0.812001 5.27365e-18)
(-5.69237 -0.809344 -1.4742e-22)
(-4.87074 -0.697698 2.16855e-34)
(-5.43792 -0.77837 5.89498e-18)
(-2.09059 -0.799441 -3.30816e-18)
)
;
    }
}


// ************************************************************************* //
