/*--------------------------------*- C++ -*----------------------------------*\
  =========                 |
  \\      /  F ield         | OpenFOAM: The Open Source CFD Toolbox
   \\    /   O peration     | Website:  https://openfoam.org
    \\  /    A nd           | Version:  7
     \\/     M anipulation  |
\*---------------------------------------------------------------------------*/
FoamFile
{
    version     2.0;
    format      ascii;
    class       volScalarField;
    location    "1";
    object      yPlus;
}
// * * * * * * * * * * * * * * * * * * * * * * * * * * * * * * * * * * * * * //

dimensions      [0 0 0 0 0 0 0];

internalField   uniform 0;

boundaryField
{
    frontAndBack
    {
        type            empty;
    }
    farfield
    {
        type            calculated;
        value           uniform 0;
    }
    airfoil
    {
        type            calculated;
        value           nonuniform List<scalar> 
341
(
0.271885
0.291554
0.287499
0.279751
0.27713
0.277139
0.276579
0.275455
0.273329
0.271597
0.270273
0.268787
0.267494
0.266395
0.265003
0.263511
0.262328
0.261207
0.260112
0.258963
0.257809
0.25669
0.255559
0.254585
0.253765
0.252803
0.251692
0.2507
0.249816
0.249072
0.248306
0.247395
0.24648
0.245677
0.244917
0.244179
0.243517
0.242782
0.242003
0.241268
0.240537
0.239864
0.239305
0.23872
0.238026
0.237324
0.236647
0.236032
0.235499
0.23502
0.234429
0.233765
0.23314
0.232566
0.232026
0.231578
0.231091
0.230468
0.229861
0.229296
0.22877
0.228293
0.227877
0.227388
0.226804
0.226254
0.225739
0.225252
0.224822
0.22442
0.223932
0.223395
0.222901
0.222447
0.222029
0.221691
0.22137
0.220921
0.220402
0.219881
0.219367
0.218865
0.218417
0.217951
0.217368
0.216766
0.216187
0.215628
0.215094
0.214604
0.214057
0.213407
0.21276
0.212137
0.211536
0.210996
0.210458
0.209799
0.209109
0.208446
0.207801
0.207205
0.206663
0.206033
0.205297
0.204559
0.203812
0.203062
0.202317
0.201426
0.200392
0.199395
0.198409
0.197502
0.19656
0.195374
0.194112
0.192903
0.191744
0.190614
0.189222
0.187675
0.186168
0.184754
0.183225
0.181313
0.17933
0.177477
0.175559
0.172989
0.170479
0.167675
0.165387
0.160139
0.159475
0.14764
0.155812
0.0975399
0.548787
0.502593
0.368026
0.295527
0.2626
0.24702
0.246553
0.25431
0.262559
0.273487
0.282317
0.290115
0.297047
0.302985
0.307578
0.310393
0.312189
0.31231
0.311861
0.31078
0.309357
0.307645
0.305741
0.303847
0.301801
0.299512
0.294575
0.292148
0.29226
0.297696
0.278474
0.541513
0.490262
0.35231
0.283473
0.258593
0.252256
0.253989
0.258779
0.266179
0.274688
0.282436
0.28974
0.296865
0.303113
0.308167
0.311187
0.313154
0.313252
0.312801
0.311593
0.310122
0.308278
0.306331
0.304321
0.302229
0.299853
0.294863
0.292361
0.29227
0.297953
0.278378
0.271578
0.29146
0.28791
0.280194
0.277275
0.277431
0.276774
0.276079
0.274253
0.272317
0.271158
0.269942
0.268674
0.267522
0.266431
0.265139
0.263847
0.262698
0.261813
0.260864
0.259642
0.258493
0.257506
0.256607
0.255738
0.25482
0.253798
0.252896
0.252017
0.25111
0.250384
0.249638
0.248812
0.247957
0.247094
0.246338
0.245693
0.245111
0.244363
0.243533
0.242784
0.242106
0.241499
0.240993
0.240375
0.239621
0.23894
0.23831
0.237738
0.237233
0.236724
0.236114
0.235478
0.23489
0.23435
0.233841
0.233373
0.232894
0.232325
0.231767
0.231244
0.230782
0.230327
0.229925
0.229524
0.229007
0.228475
0.227954
0.227458
0.226954
0.226492
0.226014
0.225442
0.22488
0.224341
0.223833
0.223324
0.222859
0.222373
0.221788
0.221219
0.220664
0.220147
0.219636
0.219157
0.218647
0.218045
0.217458
0.216889
0.216344
0.215826
0.215331
0.21476
0.214108
0.213483
0.212885
0.21231
0.211798
0.211291
0.210657
0.209979
0.209342
0.208735
0.208145
0.207589
0.206933
0.206115
0.205285
0.204475
0.203672
0.202933
0.2021
0.201092
0.200084
0.199095
0.198131
0.197242
0.196192
0.19494
0.193738
0.192549
0.191457
0.190254
0.188763
0.187264
0.185788
0.184416
0.182807
0.18086
0.178937
0.177142
0.175168
0.172549
0.170153
0.167362
0.165032
0.159857
0.159252
0.147328
0.155676
0.0976778
)
;
    }
}


// ************************************************************************* //
