/*--------------------------------*- C++ -*----------------------------------*\
  =========                 |
  \\      /  F ield         | OpenFOAM: The Open Source CFD Toolbox
   \\    /   O peration     | Website:  https://openfoam.org
    \\  /    A nd           | Version:  7
     \\/     M anipulation  |
\*---------------------------------------------------------------------------*/
FoamFile
{
    version     2.0;
    format      ascii;
    class       volVectorField;
    location    "0";
    object      wallShearStress;
}
// * * * * * * * * * * * * * * * * * * * * * * * * * * * * * * * * * * * * * //

dimensions      [0 2 -2 0 0 0 0];

internalField   uniform (0 0 0);

boundaryField
{
    frontAndBack
    {
        type            empty;
    }
    farfield
    {
        type            calculated;
        value           uniform (0 0 0);
    }
    airfoil
    {
        type            calculated;
        value           nonuniform List<vector> 
341
(
(-16.6696 -0.420506 2.02846e-25)
(-16.8349 -0.426911 -3.43619e-26)
(-17.0171 -0.291232 9.71581e-24)
(-17.1394 -0.167312 -3.09952e-42)
(-17.3395 -0.127523 -1.171e-25)
(-17.6161 -0.0777635 -1.18639e-25)
(-17.8918 -0.0262598 6.11724e-26)
(-18.2034 0.0408703 1.19325e-25)
(-18.5825 0.107938 -6.54047e-24)
(-18.9697 0.175195 2.4558e-24)
(-19.3593 0.233243 -1.82577e-24)
(-19.7955 0.294611 4.3338e-25)
(-20.2722 0.353249 -6.23535e-24)
(-20.7287 0.423357 -8.38316e-28)
(-21.1854 0.486733 2.4382e-25)
(-21.6844 0.553405 2.41277e-25)
(-22.1674 0.618983 -1.34983e-24)
(-22.6501 0.684069 -2.41381e-25)
(-23.1651 0.749014 4.15752e-24)
(-23.6561 0.823487 -6.16151e-42)
(-24.1379 0.890761 3.31267e-42)
(-24.6256 0.962269 -2.30564e-24)
(-25.1126 1.03013 -4.22343e-24)
(-25.5943 1.09781 4.95388e-25)
(-26.0657 1.1666 5.01635e-25)
(-26.5155 1.24087 1.73876e-23)
(-26.9467 1.30998 9.64742e-24)
(-27.3471 1.37935 -2.22368e-23)
(-27.7238 1.44324 4.99826e-25)
(-28.1041 1.50684 5.03595e-25)
(-28.4659 1.57314 5.08313e-25)
(-28.8166 1.64153 -4.91465e-24)
(-29.1537 1.70721 9.25232e-24)
(-29.4473 1.76911 -5.09719e-25)
(-29.7237 1.82785 -4.78486e-24)
(-29.9987 1.88529 -9.2273e-24)
(-30.2416 1.94213 -1.81398e-41)
(-30.4532 2.00147 7.99614e-24)
(-30.6468 2.05692 1.43654e-24)
(-30.8233 2.10992 7.97637e-24)
(-31.005 2.16063 -3.92364e-44)
(-31.1808 2.20936 5.05548e-25)
(-31.3275 2.2555 -2.31158e-24)
(-31.4249 2.30328 5.12289e-25)
(-31.4933 2.34783 -9.46866e-25)
(-31.5454 2.38885 7.84937e-42)
(-31.5839 2.42691 -1.28919e-43)
(-31.6066 2.46146 -5.0014e-25)
(-31.6096 2.49267 -2.41178e-24)
(-31.5653 2.52284 5.02357e-25)
(-31.4825 2.55194 6.17343e-25)
(-31.3886 2.57793 -7.62978e-25)
(-31.3152 2.60401 3.01636e-27)
(-31.2703 2.6292 -4.95009e-25)
(-31.2093 2.65423 2.01787e-43)
(-31.1486 2.67446 -6.3486e-24)
(-31.0327 2.69853 9.87633e-25)
(-30.8847 2.71455 4.92709e-25)
(-30.6991 2.73014 -1.39566e-23)
(-30.5223 2.73896 3.29336e-23)
(-30.3501 2.75185 1.57224e-23)
(-30.1851 2.75784 4.78782e-25)
(-29.9861 2.7666 3.12939e-23)
(-29.7594 2.77034 1.34709e-23)
(-29.5159 2.77719 4.76408e-25)
(-29.2797 2.77671 2.68082e-23)
(-29.0378 2.78038 1.68156e-44)
(-28.8067 2.77681 1.60653e-23)
(-28.5635 2.77744 -1.87476e-23)
(-28.3094 2.77086 4.65162e-25)
(-28.0234 2.77094 -1.98116e-23)
(-27.7436 2.76267 1.31326e-23)
(-27.4622 2.75958 -4.56694e-25)
(-27.2005 2.74958 4.5181e-25)
(-26.9308 2.74529 2.36273e-23)
(-26.6735 2.73204 -2.10509e-23)
(-26.374 2.72591 4.97794e-23)
(-26.0592 2.70995 -3.64635e-42)
(-25.7342 2.70079 -4.48416e-44)
(-25.4261 2.68233 6.06175e-23)
(-25.1213 2.67209 -2.50383e-23)
(-24.8365 2.65314 4.61404e-23)
(-24.5371 2.64115 -2.65514e-23)
(-24.2192 2.62017 -9.34386e-42)
(-23.8794 2.60663 2.8363e-23)
(-23.5554 2.58381 6.16571e-44)
(-23.2378 2.56956 -2.57898e-23)
(-22.94 2.54734 -4.2058e-25)
(-22.6424 2.5327 -2.51789e-23)
(-22.3508 2.50938 2.06707e-25)
(-22.0223 2.49464 -5.79747e-23)
(-21.6923 2.46889 4.13727e-25)
(-21.3617 2.45124 -3.14135e-23)
(-21.0505 2.42492 0)
(-20.7529 2.40748 -2.58541e-23)
(-20.4758 2.38266 -2.6989e-42)
(-20.1711 2.36557 -2.01894e-25)
(-19.8546 2.33961 -1.69188e-23)
(-19.541 2.32093 -2.62743e-45)
(-19.2459 2.29472 -1.56374e-23)
(-18.9622 2.27635 -1.95574e-25)
(-18.6937 2.25089 -1.68156e-44)
(-18.415 2.23198 2.43386e-23)
(-18.1069 2.20658 1.92714e-25)
(-17.8419 2.1854 5.59144e-23)
(-17.5656 2.16702 -1.97345e-23)
(-17.308 2.14272 -1.89281e-25)
(-17.0629 2.12543 -2.03995e-23)
(-16.8036 2.10179 1.8983e-25)
(-16.5448 2.08283 1.88804e-25)
(-16.2903 2.06303 3.93485e-42)
(-16.047 2.04328 1.68156e-44)
(-15.8317 2.02389 -4.72905e-23)
(-15.6171 2.00738 2.21727e-27)
(-15.3899 1.98725 1.8249e-25)
(-15.1646 1.97101 -2.84481e-24)
(-14.9454 1.95339 3.369e-24)
(-14.7557 1.93648 -1.79099e-25)
(-14.5704 1.92224 -1.53684e-23)
(-14.3762 1.90397 2.65018e-24)
(-14.1841 1.89044 -1.03325e-23)
(-13.9992 1.87614 8.03918e-24)
(-13.829 1.862 -8.03518e-24)
(-13.6726 1.8477 -9.40089e-24)
(-13.5102 1.8357 -8.77654e-26)
(-13.3397 1.82429 6.30973e-24)
(-13.1911 1.81192 -8.70728e-26)
(-13.0489 1.80134 -1.72048e-23)
(-12.8956 1.7879 -6.86807e-24)
(-12.7408 1.77839 -6.63548e-24)
(-12.5932 1.76583 8.44238e-26)
(-12.4467 1.75073 3.77016e-24)
(-12.2931 1.73883 4.14311e-26)
(-12.1248 1.72511 4.94936e-28)
(-11.9299 1.70279 -4.02025e-26)
(-11.6952 1.67988 0)
(-11.3687 1.6359 3.82961e-26)
(-10.6575 1.54288 -3.82976e-23)
(-1.49388 -4.96406 9.50359e-22)
(-12.2806 -14.0244 9.18979e-22)
(-26.4484 -18.9981 -5.6222e-23)
(-36.5828 -19.6454 1.47783e-22)
(-41.582 -18.1177 -6.23135e-23)
(-42.7559 -15.7712 6.05643e-25)
(-40.8737 -13.0788 2.90349e-42)
(-38.4323 -10.8457 -6.27782e-43)
(-36.1055 -9.10329 -8.18735e-23)
(-33.6491 -7.63378 7.07151e-41)
(-31.545 -6.48996 -1.82729e-41)
(-29.758 -5.56996 2.67647e-23)
(-28.1755 -4.8138 2.55989e-23)
(-26.8019 -4.19967 -3.92885e-25)
(-25.5989 -3.67323 4.48396e-23)
(-24.5323 -3.23083 3.39038e-25)
(-23.5629 -2.85733 2.09085e-22)
(-22.693 -2.51834 -8.43659e-23)
(-21.8784 -2.23225 -3.06322e-25)
(-21.136 -1.97525 -3.39072e-23)
(-20.4397 -1.75067 1.78469e-23)
(-19.8258 -1.54991 -1.66434e-23)
(-19.2553 -1.37185 2.74035e-25)
(-18.7498 -1.21476 1.33948e-25)
(-18.2991 -1.07027 1.37433e-23)
(-17.907 -0.927753 7.60062e-24)
(-17.5782 -0.784051 -1.85065e-24)
(-17.2594 -0.69733 4.27013e-24)
(-17.0354 -0.647096 6.0939e-43)
(-16.9628 -0.569353 1.88127e-24)
(-16.8156 -0.236294 3.91404e-27)
(-1.51104 5.01843 3.17579e-22)
(-12.7997 14.6189 -4.29072e-21)
(-27.7055 19.9005 -3.15138e-22)
(-37.9344 20.3726 -3.65758e-21)
(-41.3162 17.9981 -2.80388e-25)
(-40.8975 15.09 -5.45464e-22)
(-39.2923 12.5715 6.91569e-22)
(-37.2794 10.521 4.10018e-22)
(-35.074 8.8425 -4.19272e-22)
(-32.7722 7.43524 -1.10288e-24)
(-30.6061 6.29671 5.64613e-23)
(-29.0809 5.44253 1.83839e-22)
(-27.5609 4.70936 -8.69811e-23)
(-26.1126 4.09149 1.80911e-23)
(-24.9657 3.58247 -3.53462e-25)
(-24.0455 3.1663 -3.44681e-25)
(-23.093 2.79775 1.8251e-22)
(-22.1711 2.46334 1.87082e-23)
(-21.4216 2.18312 -2.99345e-25)
(-20.7039 1.93715 5.98362e-24)
(-20.0505 1.71722 -2.84834e-25)
(-19.5124 1.52505 2.77575e-25)
(-18.9643 1.35111 4.33213e-23)
(-18.4308 1.19311 -1.33186e-25)
(-18.0682 1.05738 -9.72548e-24)
(-17.7133 0.917648 1.34181e-25)
(-17.3779 0.775131 -1.09535e-24)
(-17.1114 0.691408 8.73674e-26)
(-16.9304 0.64321 1.89901e-24)
(-16.9029 0.567047 2.28208e-25)
(-16.7992 0.235989 4.57497e-26)
(-16.7164 0.42085 2.62743e-46)
(-16.8788 0.430993 0)
(-17.0537 0.299363 0)
(-17.1462 0.175367 1.63405e-44)
(-17.2324 0.128802 -1.90533e-42)
(-17.4127 0.0847574 -1.1806e-25)
(-17.6086 0.0344279 -2.39537e-25)
(-17.7988 -0.0279659 -1.21421e-25)
(-18.0034 -0.0961314 1.1729e-25)
(-18.2907 -0.15455 -2.40359e-25)
(-18.5431 -0.210726 -1.20473e-25)
(-18.7631 -0.265984 -8.05747e-45)
(-19.0591 -0.321057 4.07267e-25)
(-19.3478 -0.376266 -1.73309e-24)
(-19.6172 -0.434109 8.01262e-42)
(-19.9516 -0.492416 8.96988e-24)
(-20.2472 -0.547866 -1.01301e-23)
(-20.5383 -0.602869 1.13246e-41)
(-20.8462 -0.656393 -3.52024e-42)
(-21.1128 -0.71249 4.21162e-24)
(-21.4253 -0.770711 4.32861e-42)
(-21.7192 -0.826973 1.39693e-24)
(-22.05 -0.883663 8.4902e-24)
(-22.3326 -0.936521 -1.40806e-23)
(-22.5779 -0.987739 -6.27009e-25)
(-22.8666 -1.04477 -6.88038e-42)
(-23.1347 -1.10067 1.22767e-42)
(-23.3866 -1.15436 -6.32126e-42)
(-23.6281 -1.20609 -2.09955e-24)
(-23.9249 -1.25954 -2.38776e-25)
(-24.1696 -1.30862 -2.04544e-23)
(-24.3408 -1.35869 1.53233e-24)
(-24.5324 -1.40937 -1.99897e-24)
(-24.7088 -1.45768 5.89008e-24)
(-24.8888 -1.50455 2.09074e-42)
(-25.0859 -1.55106 6.89492e-24)
(-25.2611 -1.5944 -1.23882e-41)
(-25.4272 -1.64085 1.59766e-42)
(-25.5717 -1.6868 1.24071e-23)
(-25.6837 -1.72937 1.9439e-24)
(-25.8037 -1.7705 2.63714e-24)
(-25.9407 -1.81146 2.01002e-23)
(-26.0361 -1.84719 -9.45403e-25)
(-26.0682 -1.87901 -4.72625e-25)
(-26.115 -1.91571 1.42857e-24)
(-26.161 -1.95114 6.78326e-25)
(-26.1992 -1.98422 1.54807e-24)
(-26.2648 -2.01794 4.70603e-25)
(-26.2874 -2.04611 1.67154e-23)
(-26.2685 -2.07001 -1.23897e-27)
(-26.2713 -2.09747 -9.36764e-25)
(-26.2504 -2.125 -4.69232e-25)
(-26.2164 -2.14992 4.64617e-25)
(-26.1583 -2.17133 4.60883e-25)
(-26.1639 -2.19712 4.88773e-42)
(-26.1564 -2.21948 1.71605e-23)
(-26.112 -2.23832 -3.54641e-41)
(-25.9957 -2.25315 -3.11963e-23)
(-25.834 -2.26547 9.18268e-25)
(-25.7383 -2.2814 5.08984e-25)
(-25.6354 -2.29523 4.52892e-25)
(-25.5363 -2.3078 -1.83029e-24)
(-25.4321 -2.31844 -4.48625e-25)
(-25.3613 -2.33132 -1.66364e-23)
(-25.2263 -2.34077 4.51024e-25)
(-25.1049 -2.35254 2.90481e-23)
(-24.9792 -2.36144 2.30484e-23)
(-24.8343 -2.36823 3.03606e-23)
(-24.6517 -2.36891 3.53691e-23)
(-24.4289 -2.36565 2.97017e-24)
(-24.2778 -2.36804 -1.16164e-41)
(-24.101 -2.37078 -3.20381e-43)
(-23.92 -2.37288 1.4013e-44)
(-23.7377 -2.37355 -1.2531e-24)
(-23.554 -2.37278 1.36896e-24)
(-23.3668 -2.37047 1.93072e-24)
(-23.18 -2.36697 1.06808e-27)
(-22.9854 -2.36207 -2.25624e-24)
(-22.7633 -2.357 -7.15037e-24)
(-22.5802 -2.35604 7.2279e-42)
(-22.3542 -2.34849 1.42503e-23)
(-22.1354 -2.34171 2.103e-25)
(-21.934 -2.33444 9.36067e-42)
(-21.7314 -2.32697 -2.0741e-25)
(-21.5286 -2.31808 -2.06857e-25)
(-21.3153 -2.31157 2.38469e-23)
(-21.0929 -2.30264 2.65649e-23)
(-20.859 -2.29237 2.04967e-25)
(-20.6292 -2.28054 -1.19396e-23)
(-20.374 -2.26569 -4.04864e-25)
(-20.1699 -2.25519 -2.01502e-25)
(-19.9509 -2.24317 -8.54693e-24)
(-19.7546 -2.2364 2.01547e-25)
(-19.526 -2.22442 2.00845e-25)
(-19.2701 -2.20888 0)
(-19.0572 -2.19684 2.10313e-24)
(-18.8492 -2.18431 7.55529e-24)
(-18.6461 -2.17121 -2.75764e-24)
(-18.4331 -2.15849 -3.92432e-25)
(-18.2078 -2.14593 -2.67645e-24)
(-17.9849 -2.13249 -1.41952e-42)
(-17.7719 -2.11899 -1.92673e-25)
(-17.5675 -2.10535 8.2016e-24)
(-17.3657 -2.09084 -1.90399e-25)
(-17.1665 -2.07645 -1.89823e-25)
(-16.9596 -2.06373 4.87652e-42)
(-16.7506 -2.05044 3.4486e-42)
(-16.552 -2.03731 2.25206e-24)
(-16.3611 -2.02409 -2.18953e-47)
(-16.1789 -2.0109 2.33243e-24)
(-15.9998 -1.99752 5.78944e-24)
(-15.8084 -1.98546 1.80363e-24)
(-15.6141 -1.97305 8.16242e-24)
(-15.4295 -1.96047 -1.84005e-25)
(-15.2567 -1.94803 -3.65986e-25)
(-15.0946 -1.93559 8.17446e-24)
(-14.9333 -1.9231 6.05361e-43)
(-14.7615 -1.91269 -5.90322e-24)
(-14.591 -1.90168 7.81621e-24)
(-14.4306 -1.89038 1.84783e-24)
(-14.2804 -1.87884 -2.02891e-24)
(-14.1395 -1.86717 -8.86144e-26)
(-13.9885 -1.8573 -7.70791e-24)
(-13.8344 -1.84788 -1.48332e-24)
(-13.6913 -1.83815 -9.98767e-25)
(-13.5722 -1.83003 -8.76896e-26)
(-13.4453 -1.81944 -1.59082e-23)
(-13.2995 -1.81074 -7.21821e-24)
(-13.1603 -1.80233 1.21513e-24)
(-13.0392 -1.7942 -1.06344e-23)
(-12.9215 -1.78387 0)
(-12.776 -1.77393 -8.37018e-24)
(-12.6495 -1.76751 -8.42765e-26)
(-12.5243 -1.75703 -8.41264e-26)
(-12.3936 -1.7444 8.4389e-26)
(-12.2434 -1.73381 -1.21766e-23)
(-12.0775 -1.71791 5.98304e-25)
(-11.8993 -1.69917 3.50529e-28)
(-11.666 -1.67598 7.92896e-26)
(-11.3299 -1.63163 7.40042e-24)
(-10.614 -1.53474 -5.56315e-43)
)
;
    }
}


// ************************************************************************* //
