/*--------------------------------*- C++ -*----------------------------------*\
  =========                 |
  \\      /  F ield         | OpenFOAM: The Open Source CFD Toolbox
   \\    /   O peration     | Website:  https://openfoam.org
    \\  /    A nd           | Version:  7
     \\/     M anipulation  |
\*---------------------------------------------------------------------------*/
FoamFile
{
    version     2.0;
    format      ascii;
    class       volScalarField;
    location    "0";
    object      yPlus;
}
// * * * * * * * * * * * * * * * * * * * * * * * * * * * * * * * * * * * * * //

dimensions      [0 0 0 0 0 0 0];

internalField   uniform 0;

boundaryField
{
    frontAndBack
    {
        type            empty;
    }
    farfield
    {
        type            calculated;
        value           uniform 0;
    }
    airfoil
    {
        type            calculated;
        value           nonuniform List<scalar> 
341
(
2.238
2.23701
2.23663
2.23674
2.23611
2.23488
2.23399
2.23337
2.23251
2.23177
2.23106
2.22999
2.22903
2.22845
2.22768
2.22673
2.22613
2.22546
2.22453
2.22392
2.2236
2.22312
2.22236
2.22169
2.22138
2.22118
2.22074
2.22032
2.22003
2.21975
2.21947
2.21928
2.21918
2.21917
2.21904
2.21869
2.21849
2.21863
2.21881
2.21888
2.21875
2.21855
2.21846
2.21875
2.21903
2.21913
2.2191
2.21908
2.21906
2.2193
2.21961
2.21976
2.21987
2.21998
2.22009
2.22024
2.22058
2.22084
2.22104
2.22123
2.2214
2.22155
2.22173
2.22204
2.22229
2.22252
2.22274
2.22295
2.22313
2.22337
2.22369
2.22396
2.22422
2.22445
2.22467
2.22486
2.22515
2.22548
2.22577
2.22602
2.22625
2.22646
2.22666
2.22702
2.22736
2.22762
2.22787
2.2281
2.2283
2.22854
2.22896
2.22934
2.22962
2.22985
2.23004
2.2302
2.23051
2.23091
2.23127
2.23154
2.23173
2.23188
2.23207
2.23241
2.23273
2.23302
2.23327
2.23345
2.23363
2.23396
2.23426
2.2345
2.2347
2.23485
2.2351
2.2354
2.23563
2.2358
2.23591
2.23607
2.23634
2.23656
2.23671
2.23679
2.23695
2.23716
2.23731
2.2374
2.23753
2.2377
2.23779
2.23783
2.23794
2.23802
2.23807
2.23813
2.23816
2.2382
2.20301
2.02208
1.90129
1.86333
1.86642
1.88878
1.93299
1.97886
2.01835
2.05802
2.09197
2.12009
2.14416
2.16375
2.18016
2.19335
2.20485
2.21382
2.22141
2.22768
2.23265
2.23658
2.23953
2.24184
2.24318
2.24374
2.24342
2.24367
2.24312
2.24117
2.23853
2.19017
1.98828
1.86372
1.83189
1.85891
1.90468
1.94953
1.98946
2.0271
2.06577
2.09877
2.12619
2.14957
2.16864
2.18454
2.19734
2.20843
2.21709
2.22433
2.23031
2.23497
2.23864
2.24131
2.24336
2.24443
2.24478
2.24427
2.24423
2.2433
2.24138
2.23867
2.23713
2.23661
2.23647
2.23673
2.23644
2.23557
2.23467
2.23449
2.23416
2.23332
2.23292
2.23252
2.23175
2.23106
2.23086
2.23049
2.22979
2.22922
2.2289
2.2286
2.2281
2.22767
2.22745
2.2272
2.2267
2.22635
2.22621
2.22621
2.22602
2.22558
2.2252
2.2252
2.22536
2.22531
2.22503
2.22482
2.22467
2.22481
2.22494
2.22487
2.22479
2.22476
2.22475
2.22477
2.22489
2.22492
2.22498
2.22506
2.22515
2.22515
2.22515
2.22527
2.22541
2.22556
2.22572
2.22582
2.22578
2.22588
2.2261
2.22631
2.22651
2.22671
2.22676
2.22669
2.22684
2.22707
2.2273
2.22752
2.2277
2.22775
2.22774
2.22794
2.22818
2.22842
2.22864
2.22883
2.2289
2.22891
2.22912
2.22936
2.22959
2.2298
2.23
2.23011
2.23014
2.23035
2.23058
2.2308
2.231
2.2312
2.23134
2.23146
2.23169
2.23192
2.23213
2.23231
2.23248
2.23262
2.23281
2.23305
2.23325
2.23343
2.23358
2.2337
2.23383
2.2341
2.23433
2.23449
2.23463
2.23474
2.23485
2.23509
2.23536
2.23557
2.2357
2.23578
2.23586
2.23608
2.23629
2.23646
2.23658
2.23663
2.23677
2.23694
2.23707
2.23716
2.23723
2.23739
2.23752
2.2376
2.23764
2.23776
2.23789
2.23794
2.23796
2.23804
2.23809
2.23812
2.23817
2.23818
2.23821
)
;
    }
}


// ************************************************************************* //
