# p  FACE_DATA 341
#  x  y  z  p
0.253551 0.0594249 0.5 1662.97
0.260625 0.059604 0.5 1646.61
0.268301 0.0597641 0.5 1668.13
0.275825 0.0598682 0.5 1690.25
0.282831 0.059928 0.5 1719.57
0.290299 0.0599719 0.5 1741.68
0.298014 0.0599954 0.5 1766.67
0.305661 0.0599931 0.5 1787.48
0.313016 0.0599637 0.5 1810.21
0.3202 0.0599102 0.5 1831.82
0.327394 0.0598346 0.5 1853.72
0.334592 0.0597382 0.5 1875.1
0.341788 0.059622 0.5 1896.41
0.348891 0.0594882 0.5 1916.94
0.355903 0.0593371 0.5 1937.28
0.362912 0.0591677 0.5 1957.5
0.369915 0.058981 0.5 1977.84
0.376908 0.0587783 0.5 1997.67
0.383848 0.0585616 0.5 2017.35
0.39071 0.0583318 0.5 2036.18
0.397536 0.0580877 0.5 2055.42
0.404349 0.0578293 0.5 2074.22
0.411146 0.0575577 0.5 2093.14
0.417921 0.0572738 0.5 2111.6
0.424635 0.05698 0.5 2129.76
0.431287 0.0566758 0.5 2147.62
0.437919 0.0563599 0.5 2165.54
0.444529 0.056033 0.5 2183.37
0.451115 0.055696 0.5 2200.94
0.457672 0.0553498 0.5 2218.38
0.464179 0.0549959 0.5 2235.32
0.47064 0.0546337 0.5 2252.2
0.477077 0.0542621 0.5 2269.02
0.483487 0.0538822 0.5 2285.74
0.489866 0.0534947 0.5 2302.32
0.496211 0.0531004 0.5 2318.63
0.50252 0.0526998 0.5 2334.7
0.508797 0.0522921 0.5 2350.53
0.515045 0.0518774 0.5 2366.45
0.52126 0.0514563 0.5 2382.17
0.52744 0.0510296 0.5 2397.82
0.533582 0.0505981 0.5 2413.19
0.539695 0.0501616 0.5 2428.42
0.545788 0.0497191 0.5 2443.36
0.551854 0.0492707 0.5 2458.4
0.557885 0.0488177 0.5 2473.27
0.563876 0.0483607 0.5 2488.04
0.569827 0.0479005 0.5 2502.64
0.575737 0.0474373 0.5 2517.01
0.58164 0.0469687 0.5 2531.22
0.587536 0.0464941 0.5 2545.37
0.593393 0.0460162 0.5 2559.47
0.599208 0.0455357 0.5 2573.39
0.60498 0.045053 0.5 2587.21
0.610706 0.0445687 0.5 2600.78
0.616408 0.0440814 0.5 2614.26
0.622117 0.043588 0.5 2627.57
0.627812 0.04309 0.5 2640.93
0.633463 0.0425903 0.5 2654.15
0.639069 0.0420895 0.5 2667.24
0.644626 0.0415881 0.5 2680.16
0.650134 0.0410868 0.5 2692.88
0.655639 0.0405812 0.5 2705.52
0.661165 0.0400689 0.5 2718.07
0.666665 0.039554 0.5 2730.65
0.672117 0.0390389 0.5 2743.04
0.677519 0.038524 0.5 2755.32
0.682868 0.0380099 0.5 2767.42
0.688165 0.037497 0.5 2779.34
0.693484 0.0369779 0.5 2791.22
0.698837 0.0364512 0.5 2803.11
0.704147 0.0359241 0.5 2814.94
0.709405 0.0353979 0.5 2826.57
0.714609 0.0348733 0.5 2838.1
0.719757 0.0343505 0.5 2849.4
0.724855 0.0338293 0.5 2860.57
0.729999 0.0332999 0.5 2871.7
0.73518 0.0327625 0.5 2882.91
0.740306 0.0322267 0.5 2893.96
0.745375 0.0316932 0.5 2904.87
0.750386 0.0311622 0.5 2915.61
0.755336 0.0306343 0.5 2926.17
0.76026 0.0301061 0.5 2936.6
0.765241 0.0295683 0.5 2947.06
0.770246 0.0290241 0.5 2957.55
0.775191 0.0284829 0.5 2967.89
0.780073 0.027945 0.5 2978.05
0.784891 0.0274108 0.5 2988.04
0.789645 0.0268807 0.5 2997.82
0.794414 0.0263459 0.5 3007.56
0.799254 0.0257999 0.5 3017.35
0.804082 0.0252514 0.5 3027.12
0.808843 0.0247071 0.5 3036.68
0.813536 0.0241673 0.5 3046.09
0.81816 0.0236326 0.5 3055.26
0.822721 0.0231023 0.5 3064.25
0.827366 0.0225594 0.5 3073.29
0.832084 0.0220045 0.5 3082.42
0.836729 0.0214548 0.5 3091.37
0.841299 0.0209107 0.5 3100.1
0.845793 0.0203728 0.5 3108.63
0.85021 0.0198415 0.5 3116.91
0.854677 0.0193015 0.5 3125.2
0.859239 0.0187469 0.5 3133.52
0.863766 0.0181934 0.5 3141.77
0.868209 0.0176469 0.5 3149.73
0.872568 0.017108 0.5 3157.51
0.87684 0.0165772 0.5 3164.97
0.881165 0.0160373 0.5 3172.46
0.885597 0.0154808 0.5 3179.95
0.889995 0.0149253 0.5 3187.36
0.894296 0.0143788 0.5 3194.44
0.8985 0.013842 0.5 3201.29
0.902612 0.0133146 0.5 3207.8
0.90685 0.0127685 0.5 3214.38
0.911199 0.0122047 0.5 3220.92
0.915436 0.0116524 0.5 3227.22
0.919558 0.0111121 0.5 3233.11
0.923564 0.0105848 0.5 3238.71
0.92766 0.0100432 0.5 3244.12
0.931889 0.00948105 0.5 3249.55
0.936032 0.00892713 0.5 3254.49
0.940034 0.00838932 0.5 3259.18
0.943918 0.00786528 0.5 3263.18
0.947957 0.00731753 0.5 3267.37
0.952111 0.00675118 0.5 3270.69
0.956082 0.0062066 0.5 3274.27
0.959868 0.005685 0.5 3276.05
0.963806 0.00514008 0.5 3278.92
0.967884 0.00457263 0.5 3278.88
0.971729 0.00403453 0.5 3280.99
0.97552 0.00350184 0.5 3278.03
0.979458 0.0029459 0.5 3279.28
0.983267 0.00240536 0.5 3271.44
0.98706 0.00186472 0.5 3271.3
0.990882 0.00131704 0.5 3255.94
0.994678 0.000770466 0.5 3247.66
0.99832 0.00024378 0.5 3215.2
0.00133235 0.00449653 0.5 2972.42
0.00576479 0.0125392 0.5 1050.89
0.0127073 0.018847 0.5 618.096
0.0207688 0.0238748 0.5 478.328
0.0291543 0.0279559 0.5 533.972
0.037672 0.0313759 0.5 555.552
0.0464094 0.0343841 0.5 654.286
0.0551576 0.0370177 0.5 784.212
0.0639069 0.0393539 0.5 796.155
0.0727041 0.0414595 0.5 905.691
0.081414 0.0433437 0.5 897.957
0.090183 0.0450639 0.5 986.639
0.098871 0.0466203 0.5 1007.7
0.107395 0.0480148 0.5 1065.3
0.116087 0.049318 0.5 1094.33
0.124618 0.0504925 0.5 1147.2
0.132994 0.0515502 0.5 1171.35
0.141535 0.0525408 0.5 1219.36
0.149928 0.053435 0.5 1246.48
0.158135 0.0542362 0.5 1283.05
0.166435 0.0549791 0.5 1315.7
0.174718 0.0556571 0.5 1345.31
0.182824 0.0562624 0.5 1377.35
0.190865 0.0568083 0.5 1405.87
0.198976 0.0573076 0.5 1434.6
0.20712 0.0577564 0.5 1466.39
0.215524 0.0581602 0.5 1490.01
0.224086 0.0585239 0.5 1535.37
0.231971 0.0588335 0.5 1549.64
0.239768 0.0591111 0.5 1586.62
0.246955 0.0592927 0.5 1562.54
0.00133235 -0.00449653 0.5 5123.6
0.00576479 -0.0125392 0.5 5101.27
0.0127073 -0.018847 0.5 4086.83
0.0207688 -0.0238748 0.5 3669.28
0.0291543 -0.0279559 0.5 3139.55
0.037672 -0.0313759 0.5 2979.97
0.0464094 -0.0343841 0.5 2747.78
0.0551576 -0.0370177 0.5 2637.94
0.0639069 -0.0393539 0.5 2512.73
0.0727041 -0.0414595 0.5 2442.83
0.081414 -0.0433437 0.5 2362.04
0.090183 -0.0450639 0.5 2314.19
0.098871 -0.0466203 0.5 2260.9
0.107395 -0.0480148 0.5 2226.82
0.116087 -0.049318 0.5 2190.55
0.124618 -0.0504925 0.5 2163.73
0.132994 -0.0515502 0.5 2140.2
0.141535 -0.0525408 0.5 2118.51
0.149928 -0.053435 0.5 2102.37
0.158135 -0.0542362 0.5 2086.29
0.166435 -0.0549791 0.5 2074.99
0.174718 -0.0556571 0.5 2062.15
0.182824 -0.0562624 0.5 2054.8
0.190865 -0.0568083 0.5 2045.44
0.198976 -0.0573076 0.5 2040.04
0.20712 -0.0577564 0.5 2032.68
0.215524 -0.0581602 0.5 2031.2
0.224086 -0.0585239 0.5 2032.76
0.231971 -0.0588335 0.5 2025.67
0.239768 -0.0591111 0.5 2047.63
0.246955 -0.0592927 0.5 1969.64
0.253478 -0.0594229 0.5 2062.09
0.260394 -0.0595984 0.5 2020.43
0.267845 -0.0597569 0.5 2017.97
0.275233 -0.059862 0.5 2012.16
0.282135 -0.059923 0.5 2025.38
0.289403 -0.0599678 0.5 2020.98
0.296942 -0.0599937 0.5 2027.67
0.304465 -0.0599955 0.5 2024.29
0.311708 -0.0599711 0.5 2026.73
0.318744 -0.0599229 0.5 2029.58
0.325783 -0.0598535 0.5 2030.81
0.332827 -0.0597638 0.5 2035.12
0.339871 -0.0596549 0.5 2037.28
0.346848 -0.0595287 0.5 2039.69
0.353736 -0.0593859 0.5 2043.04
0.360596 -0.0592257 0.5 2045.76
0.367453 -0.0590487 0.5 2049.09
0.3743 -0.0588558 0.5 2052.61
0.381124 -0.0586486 0.5 2056.11
0.38787 -0.0584289 0.5 2059.32
0.394554 -0.0581963 0.5 2062.89
0.401228 -0.0579495 0.5 2066.74
0.407888 -0.0576896 0.5 2070.58
0.41453 -0.0574175 0.5 2074.55
0.421133 -0.0571349 0.5 2078.3
0.427675 -0.0568427 0.5 2081.95
0.434175 -0.0565398 0.5 2085.88
0.440657 -0.0562259 0.5 2089.95
0.447118 -0.0559019 0.5 2094.1
0.453553 -0.0555685 0.5 2098.19
0.459952 -0.0552271 0.5 2102.21
0.466305 -0.054878 0.5 2106.04
0.472621 -0.0545205 0.5 2110.15
0.478913 -0.0541543 0.5 2114.35
0.485178 -0.0537804 0.5 2118.61
0.491413 -0.0533994 0.5 2122.86
0.497615 -0.0530121 0.5 2126.96
0.503783 -0.0526186 0.5 2130.94
0.509921 -0.0522183 0.5 2135.04
0.51603 -0.0518112 0.5 2139.3
0.522108 -0.0513982 0.5 2143.59
0.528152 -0.05098 0.5 2147.88
0.534159 -0.0505573 0.5 2152.09
0.54014 -0.0501296 0.5 2156.17
0.546102 -0.0496961 0.5 2160.18
0.552038 -0.0492571 0.5 2164.41
0.557939 -0.0488136 0.5 2168.66
0.563803 -0.0483664 0.5 2172.94
0.569628 -0.047916 0.5 2177.18
0.575412 -0.047463 0.5 2181.33
0.58119 -0.0470047 0.5 2185.34
0.586964 -0.0465405 0.5 2189.44
0.5927 -0.0460731 0.5 2193.63
0.598397 -0.0456031 0.5 2197.85
0.604052 -0.045131 0.5 2202.06
0.609664 -0.0446572 0.5 2206.25
0.615243 -0.0441814 0.5 2210.33
0.620829 -0.0436999 0.5 2214.34
0.626413 -0.0432129 0.5 2218.5
0.631955 -0.0427242 0.5 2222.73
0.637454 -0.0422343 0.5 2226.98
0.642907 -0.0417437 0.5 2231.23
0.648313 -0.041253 0.5 2235.44
0.653694 -0.0407603 0.5 2239.56
0.659096 -0.0402614 0.5 2243.63
0.664496 -0.0397577 0.5 2247.84
0.669852 -0.0392536 0.5 2252.09
0.675159 -0.0387495 0.5 2256.37
0.680418 -0.0382459 0.5 2260.64
0.685626 -0.0377433 0.5 2264.89
0.690816 -0.0372389 0.5 2269.08
0.696038 -0.0367272 0.5 2273.26
0.701263 -0.0362109 0.5 2277.59
0.706438 -0.0356954 0.5 2281.96
0.711561 -0.035181 0.5 2286.37
0.716633 -0.0346682 0.5 2290.78
0.72165 -0.0341574 0.5 2295.17
0.726654 -0.0336446 0.5 2299.51
0.731704 -0.0331235 0.5 2303.89
0.736758 -0.032598 0.5 2308.43
0.741759 -0.0320742 0.5 2313.02
0.746705 -0.0315527 0.5 2317.64
0.751594 -0.0310337 0.5 2322.28
0.756425 -0.0305178 0.5 2326.91
0.761255 -0.029999 0.5 2331.53
0.766142 -0.0294707 0.5 2336.22
0.771031 -0.0289385 0.5 2341.08
0.775861 -0.0284092 0.5 2346
0.780632 -0.0278832 0.5 2350.97
0.785341 -0.0273608 0.5 2355.96
0.789989 -0.0268423 0.5 2360.95
0.79466 -0.0263184 0.5 2366
0.799401 -0.0257833 0.5 2371.19
0.804125 -0.0252465 0.5 2376.59
0.808785 -0.0247137 0.5 2382.06
0.81338 -0.0241853 0.5 2387.59
0.817908 -0.0236617 0.5 2393.16
0.822369 -0.0231434 0.5 2398.74
0.826908 -0.0226131 0.5 2404.46
0.831528 -0.0220701 0.5 2410.46
0.836084 -0.0215313 0.5 2416.63
0.840568 -0.0209979 0.5 2422.88
0.844979 -0.0204704 0.5 2429.21
0.849317 -0.0199491 0.5 2435.6
0.853667 -0.0194238 0.5 2442.1
0.858113 -0.0188842 0.5 2448.88
0.862564 -0.0183407 0.5 2455.98
0.866936 -0.0178038 0.5 2463.22
0.871227 -0.0172741 0.5 2470.57
0.875436 -0.016752 0.5 2478.02
0.879628 -0.0162295 0.5 2485.65
0.88393 -0.0156905 0.5 2493.66
0.88827 -0.0151435 0.5 2502.17
0.892518 -0.014605 0.5 2510.87
0.896674 -0.0140755 0.5 2519.76
0.900735 -0.0135557 0.5 2528.78
0.904824 -0.01303 0.5 2538.17
0.909034 -0.0124858 0.5 2548.14
0.913238 -0.0119394 0.5 2558.71
0.917332 -0.0114042 0.5 2569.53
0.921316 -0.010881 0.5 2580.57
0.925241 -0.0103633 0.5 2591.95
0.929306 -0.00982488 0.5 2604.13
0.933445 -0.00927338 0.5 2617.3
0.937451 -0.00873681 0.5 2630.84
0.941321 -0.00821597 0.5 2644.65
0.945168 -0.00769601 0.5 2659.19
0.949167 -0.00715299 0.5 2674.96
0.953183 -0.00660441 0.5 2691.97
0.957024 -0.006077 0.5 2709.33
0.960743 -0.00556416 0.5 2727.44
0.964631 -0.00502557 0.5 2747.19
0.968598 -0.00447292 0.5 2769.13
0.972318 -0.00395183 0.5 2790.57
0.976051 -0.00342699 0.5 2816.29
0.979926 -0.00287974 0.5 2838.75
0.983612 -0.00235633 0.5 2872.92
0.987331 -0.00182587 0.5 2893.65
0.991079 -0.00128868 0.5 2937.06
0.994786 -0.000754822 0.5 2967.44
0.998359 -0.000238135 0.5 2982.75
