/*--------------------------------*- C++ -*----------------------------------*\
  =========                 |
  \\      /  F ield         | OpenFOAM: The Open Source CFD Toolbox
   \\    /   O peration     | Website:  https://openfoam.org
    \\  /    A nd           | Version:  7
     \\/     M anipulation  |
\*---------------------------------------------------------------------------*/
FoamFile
{
    version     2.0;
    format      ascii;
    class       volScalarField;
    location    "1";
    object      p;
}
// * * * * * * * * * * * * * * * * * * * * * * * * * * * * * * * * * * * * * //

dimensions      [0 2 -2 0 0 0 0];

internalField   nonuniform List<scalar> 
152725
(
-0.23693
-0.2352
-0.234189
-0.233442
-0.232584
-0.231638
-0.230678
-0.22971
-0.228719
-0.227703
-0.226662
-0.225598
-0.224509
-0.223395
-0.222254
-0.221088
-0.219894
-0.218672
-0.217422
-0.216144
-0.214835
-0.213497
-0.212128
-0.210727
-0.209294
-0.207828
-0.206328
-0.204794
-0.203225
-0.201619
-0.199977
-0.198298
-0.19658
-0.194823
-0.193026
-0.191188
-0.189309
-0.187386
-0.18542
-0.18341
-0.181353
-0.179251
-0.177101
-0.174902
-0.172653
-0.170354
-0.168003
-0.165599
-0.163141
-0.160628
-0.158058
-0.155431
-0.152744
-0.149998
-0.14719
-0.144319
-0.141384
-0.138383
-0.135315
-0.132179
-0.128973
-0.125695
-0.122344
-0.118919
-0.115417
-0.111837
-0.108178
-0.104438
-0.100614
-0.0967051
-0.0927096
-0.0886254
-0.0844504
-0.0801829
-0.0758207
-0.0713618
-0.066804
-0.0621452
-0.0573832
-0.0525158
-0.0475405
-0.0424552
-0.0372575
-0.0319448
-0.0265146
-0.0209646
-0.0152921
-0.00949444
-0.00356903
0.00248684
0.00867592
0.015001
0.0214648
0.0280703
0.0348202
0.0417176
0.0487652
0.055966
0.063323
0.0708392
0.0785173
0.0863604
0.0943714
0.102553
0.110908
0.11944
0.128151
0.137043
0.14612
0.155383
0.164836
0.17448
0.184317
0.194349
0.204578
0.215005
0.225632
0.236459
0.247487
0.258717
0.270147
0.281779
0.29361
0.30564
0.317867
0.330289
0.342903
0.355705
0.368693
0.38186
0.395202
0.408714
0.422388
0.436217
0.450193
0.464308
0.478551
0.492913
0.507381
0.521945
0.536591
0.551304
0.566072
0.580879
0.595708
0.610543
0.625366
0.64016
0.654905
0.669583
0.684173
0.698656
0.713011
0.727218
0.741255
0.755101
0.768736
0.782139
0.79529
0.808168
0.820753
0.833026
0.84497
0.856565
0.867796
0.878646
0.8891
0.899145
0.908768
0.917958
0.926705
0.935
0.942835
0.950205
0.957106
0.963535
0.969489
0.974968
0.979974
0.984509
0.988576
0.992179
0.995325
0.998021
1.00027
1.00209
1.00348
1.00446
1.00503
1.00522
1.00502
1.00446
1.00355
1.00232
1.00078
0.998983
0.99697
0.994829
0.992785
0.991148
0.991427
0.994505
0.629479
0.629594
0.629393
0.629041
0.628719
0.628425
0.628126
0.627818
0.627506
0.627191
0.626874
0.626553
0.62623
0.625904
0.625575
0.625243
0.62491
0.624574
0.624236
0.623897
0.623556
0.623213
0.62287
0.622526
0.622181
0.621836
0.621491
0.621147
0.620803
0.620461
0.62012
0.619781
0.619445
0.619112
0.618782
0.618456
0.618135
0.617819
0.617508
0.617204
0.616907
0.616618
0.616337
0.616065
0.615804
0.615553
0.615314
0.615088
0.614876
0.614678
0.614496
0.614331
0.614184
0.614056
0.613948
0.613862
0.613799
0.61376
0.613747
0.613761
0.613804
0.613878
0.613983
0.614122
0.614296
0.614507
0.614758
0.615049
0.615383
0.615762
0.616189
0.616664
0.617191
0.617772
0.618408
0.619104
0.619859
0.620679
0.621564
0.622517
0.623542
0.624641
0.625817
0.627072
0.628409
0.629832
0.631343
0.632945
0.634641
0.636435
0.63833
0.640327
0.642432
0.644646
0.646973
0.649417
0.651979
0.654664
0.657474
0.660412
0.663482
0.666686
0.670027
0.673508
0.677132
0.6809
0.684817
0.688883
0.693101
0.697473
0.702
0.706685
0.711528
0.716531
0.721694
0.727018
0.732502
0.738148
0.743953
0.749918
0.75604
0.762318
0.768749
0.775331
0.78206
0.788933
0.795945
0.80309
0.810364
0.81776
0.825271
0.832889
0.840606
0.848414
0.856303
0.864262
0.872281
0.880347
0.88845
0.896575
0.904711
0.912841
0.920953
0.929031
0.93706
0.945023
0.952906
0.96069
0.968361
0.975901
0.983294
0.990524
0.997573
1.00443
1.01107
1.01748
1.02365
1.02957
1.03521
1.04058
1.04565
1.05042
1.05487
1.059
1.06281
1.06627
1.0694
1.07219
1.07462
1.07672
1.07846
1.07987
1.08093
1.08166
1.08205
1.08212
1.08187
1.08131
1.08045
1.0793
1.07787
1.07617
1.07421
1.07201
1.06957
1.06691
1.06403
1.06096
1.05771
1.05428
1.05069
1.04696
1.04311
1.03914
1.0351
1.03101
1.02691
1.02289
1.01899
1.0153
1.01105
1.0054
-0.279607
-0.278094
-0.277157
-0.276448
-0.275649
-0.274774
-0.273882
-0.27298
-0.272057
-0.27111
-0.270139
-0.269144
-0.268126
-0.267083
-0.266014
-0.26492
-0.263798
-0.26265
-0.261474
-0.260269
-0.259034
-0.25777
-0.256475
-0.255149
-0.25379
-0.252399
-0.250973
-0.249513
-0.248017
-0.246485
-0.244916
-0.243309
-0.241662
-0.239976
-0.238248
-0.236478
-0.234665
-0.232808
-0.230905
-0.228956
-0.22696
-0.224914
-0.222818
-0.220671
-0.218472
-0.216218
-0.213909
-0.211543
-0.209119
-0.206635
-0.20409
-0.201482
-0.198809
-0.196071
-0.193264
-0.190388
-0.18744
-0.184419
-0.181322
-0.178149
-0.174896
-0.171561
-0.168143
-0.164639
-0.161047
-0.157365
-0.15359
-0.14972
-0.145751
-0.141683
-0.137511
-0.133234
-0.128848
-0.12435
-0.119738
-0.115008
-0.110157
-0.105183
-0.100082
-0.0948501
-0.0894845
-0.0839816
-0.0783378
-0.0725496
-0.0666132
-0.0605249
-0.0542809
-0.0478773
-0.0413102
-0.0345755
-0.0276693
-0.0205875
-0.013326
-0.00588072
0.00175258
0.00957802
0.0175997
0.0258219
0.0342486
0.042884
0.051732
0.0607967
0.070082
0.0795916
0.0893291
0.0992982
0.109502
0.119944
0.130627
0.141554
0.152727
0.164149
0.17582
0.187744
0.19992
0.212349
0.225033
0.237969
0.251158
0.264598
0.278288
0.292223
0.306402
0.320819
0.335471
0.35035
0.365452
0.380767
0.396289
0.412007
0.427911
0.443991
0.460233
0.476625
0.493152
0.5098
0.52655
0.543387
0.560292
0.577245
0.594225
0.611213
0.628185
0.645119
0.661992
0.678778
0.695453
0.711993
0.728371
0.744561
0.760537
0.776275
0.791746
0.806927
0.821791
0.836314
0.850473
0.864243
0.877602
0.890529
0.903005
0.91501
0.926526
0.937539
0.948034
0.957998
0.967421
0.976293
0.984608
0.99236
0.999545
1.00616
1.01221
1.01769
1.02261
1.02697
1.03078
1.03405
1.03678
1.03898
1.04068
1.04187
1.04258
1.04282
1.04259
1.04193
1.04084
1.03933
1.03743
1.03515
1.03252
1.02954
1.02624
1.02265
1.01879
1.01471
1.01044
1.00605
1.00165
0.997454
0.994476
0.995023
0.248355
0.248744
0.248718
0.248502
0.248331
0.248203
0.248074
0.247937
0.247801
0.247668
0.247538
0.247409
0.247282
0.247158
0.247038
0.24692
0.246806
0.246696
0.24659
0.246489
0.246393
0.246303
0.246219
0.246142
0.246071
0.246008
0.245954
0.245908
0.245872
0.245846
0.245831
0.245828
0.245837
0.245859
0.245895
0.245946
0.246013
0.246097
0.246199
0.24632
0.246461
0.246623
0.246808
0.247017
0.247251
0.247511
0.247799
0.248118
0.248467
0.248849
0.249266
0.249719
0.25021
0.250741
0.251315
0.251933
0.252597
0.253311
0.254075
0.254893
0.255767
0.2567
0.257695
0.258753
0.259879
0.261076
0.262345
0.263692
0.265118
0.266627
0.268224
0.269911
0.271692
0.273572
0.275553
0.277641
0.27984
0.282153
0.284585
0.287141
0.289826
0.292643
0.295598
0.298696
0.301942
0.30534
0.308897
0.312616
0.316504
0.320566
0.324808
0.329234
0.33385
0.338662
0.343675
0.348895
0.354327
0.359977
0.365849
0.37195
0.378284
0.384857
0.391673
0.398737
0.406054
0.413628
0.421463
0.429562
0.43793
0.446569
0.455483
0.464672
0.47414
0.483886
0.493913
0.50422
0.514807
0.525672
0.536813
0.548228
0.559913
0.571865
0.584076
0.596542
0.609255
0.622206
0.635387
0.648787
0.662394
0.676196
0.690179
0.704328
0.718626
0.733056
0.747601
0.762239
0.776951
0.791714
0.806505
0.8213
0.836075
0.850804
0.86546
0.880016
0.894444
0.908717
0.922805
0.936679
0.950311
0.963673
0.976735
0.98947
1.00185
1.01385
1.02544
1.03659
1.0473
1.05752
1.06724
1.07644
1.08511
1.09323
1.10078
1.10775
1.11414
1.11993
1.12513
1.12972
1.13371
1.1371
1.13989
1.14209
1.1437
1.14475
1.14522
1.14515
1.14454
1.14341
1.14178
1.13966
1.13707
1.13404
1.13057
1.1267
1.12244
1.11781
1.11284
1.10754
1.10193
1.09603
1.08987
1.08346
1.07683
1.07
1.06299
1.05585
1.04861
1.04132
1.03396
1.02667
1.01815
1.00852
-0.423082
-0.42161
-0.420698
-0.42002
-0.419256
-0.418414
-0.417555
-0.416684
-0.415792
-0.414874
-0.413931
-0.412964
-0.411972
-0.410954
-0.409908
-0.408835
-0.407734
-0.406604
-0.405444
-0.404253
-0.403031
-0.401777
-0.400489
-0.399167
-0.397809
-0.396416
-0.394985
-0.393516
-0.392008
-0.390459
-0.388869
-0.387237
-0.38556
-0.383838
-0.382069
-0.380253
-0.378387
-0.376471
-0.374503
-0.372481
-0.370404
-0.36827
-0.366077
-0.363824
-0.36151
-0.359131
-0.356687
-0.354175
-0.351593
-0.34894
-0.346213
-0.34341
-0.340528
-0.337565
-0.334519
-0.331388
-0.328168
-0.324857
-0.321453
-0.317951
-0.314351
-0.310648
-0.306839
-0.302921
-0.298891
-0.294745
-0.29048
-0.286093
-0.281579
-0.276935
-0.272157
-0.26724
-0.262181
-0.256976
-0.25162
-0.246108
-0.240436
-0.234599
-0.228593
-0.222413
-0.216053
-0.209509
-0.202775
-0.195845
-0.188716
-0.18138
-0.173833
-0.166069
-0.158082
-0.149866
-0.141416
-0.132726
-0.12379
-0.114602
-0.105156
-0.0954464
-0.0854675
-0.0752135
-0.0646788
-0.0538578
-0.0427452
-0.0313358
-0.0196244
-0.00760631
0.00472305
0.017368
0.0303324
0.0436198
0.0572335
0.0711761
0.0854499
0.100057
0.114997
0.130272
0.145881
0.161823
0.178097
0.194699
0.211626
0.228874
0.246438
0.264309
0.282482
0.300947
0.319693
0.338711
0.357986
0.377506
0.397255
0.417216
0.437371
0.457701
0.478186
0.498802
0.519527
0.540336
0.561202
0.582098
0.602996
0.623866
0.644676
0.665397
0.685994
0.706436
0.726688
0.746716
0.766486
0.785963
0.805114
0.823904
0.8423
0.860267
0.877775
0.894792
0.911288
0.927234
0.942603
0.95737
0.971511
0.985003
0.997829
1.00997
1.02141
1.03214
1.04215
1.05143
1.05997
1.06778
1.07485
1.08118
1.08679
1.09167
1.09584
1.0993
1.10208
1.10418
1.10562
1.10643
1.10661
1.10619
1.10518
1.10362
1.10152
1.09891
1.0958
1.09222
1.08819
1.08374
1.07888
1.07363
1.06802
1.06207
1.0558
1.04924
1.0424
1.03532
1.02803
1.02056
1.01294
1.00536
0.998496
0.995688
-0.145043
-0.144307
-0.144045
-0.144002
-0.143898
-0.143738
-0.143571
-0.143405
-0.143231
-0.143045
-0.142849
-0.142643
-0.142425
-0.142195
-0.141954
-0.141699
-0.141431
-0.141149
-0.140852
-0.140539
-0.140211
-0.139865
-0.139502
-0.13912
-0.138719
-0.138297
-0.137854
-0.137389
-0.1369
-0.136388
-0.135849
-0.135284
-0.134691
-0.134069
-0.133416
-0.132732
-0.132014
-0.131261
-0.130472
-0.129645
-0.128777
-0.127869
-0.126917
-0.125919
-0.124875
-0.123781
-0.122635
-0.121435
-0.12018
-0.118865
-0.11749
-0.11605
-0.114544
-0.112969
-0.111322
-0.109599
-0.107797
-0.105914
-0.103946
-0.101889
-0.0997395
-0.0974939
-0.0951484
-0.0926989
-0.0901411
-0.0874708
-0.0846837
-0.081775
-0.07874
-0.075574
-0.0722719
-0.0688285
-0.0652386
-0.0614967
-0.0575972
-0.0535344
-0.0493023
-0.0448951
-0.0403065
-0.0355302
-0.0305599
-0.0253889
-0.0200105
-0.014418
-0.00860455
-0.00256305
0.00371356
0.0102324
0.0170008
0.024026
0.0313153
0.0388761
0.0467157
0.0548414
0.0632607
0.0719806
0.0810083
0.0903509
0.100015
0.110008
0.120336
0.131005
0.142021
0.15339
0.165118
0.177208
0.189666
0.202495
0.215698
0.22928
0.24324
0.257581
0.272304
0.287407
0.30289
0.318751
0.334986
0.351591
0.368561
0.385888
0.403566
0.421583
0.439931
0.458597
0.477567
0.496827
0.516359
0.536145
0.556166
0.576401
0.596826
0.617417
0.638148
0.658991
0.679917
0.700896
0.721895
0.742882
0.763821
0.784678
0.805416
0.825997
0.846385
0.86654
0.886423
0.905996
0.92522
0.944055
0.962465
0.980412
0.997858
1.01477
1.03111
1.04685
1.06195
1.07639
1.09014
1.10317
1.11547
1.12701
1.13778
1.14775
1.15693
1.1653
1.17285
1.17958
1.1855
1.1906
1.19489
1.19837
1.20107
1.20299
1.20415
1.20456
1.20425
1.20323
1.20153
1.19918
1.19619
1.1926
1.18843
1.1837
1.17845
1.1727
1.16647
1.1598
1.15271
1.14522
1.13736
1.12915
1.12062
1.11179
1.10267
1.09329
1.08368
1.07386
1.06385
1.05369
1.04333
1.03297
1.02133
1.00948
-0.666179
-0.664613
-0.663612
-0.662859
-0.662017
-0.661092
-0.660144
-0.659182
-0.658194
-0.657177
-0.65613
-0.655055
-0.65395
-0.652813
-0.651645
-0.650443
-0.649208
-0.647938
-0.646632
-0.645289
-0.643907
-0.642487
-0.641026
-0.639523
-0.637977
-0.636387
-0.634751
-0.633068
-0.631336
-0.629555
-0.627722
-0.625835
-0.623894
-0.621896
-0.61984
-0.617723
-0.615545
-0.613302
-0.610993
-0.608616
-0.606168
-0.603648
-0.601052
-0.598379
-0.595627
-0.592792
-0.589871
-0.586863
-0.583764
-0.580571
-0.577282
-0.573893
-0.5704
-0.566802
-0.563093
-0.559271
-0.555331
-0.551271
-0.547086
-0.542771
-0.538324
-0.533739
-0.529012
-0.524139
-0.519115
-0.513934
-0.508593
-0.503085
-0.497406
-0.49155
-0.485512
-0.479286
-0.472865
-0.466245
-0.459418
-0.452379
-0.445121
-0.437638
-0.429922
-0.421968
-0.413767
-0.405313
-0.396599
-0.387618
-0.378361
-0.368822
-0.358993
-0.348866
-0.338434
-0.327689
-0.316623
-0.305229
-0.293499
-0.281425
-0.269001
-0.256217
-0.243069
-0.229547
-0.215646
-0.201359
-0.18668
-0.171602
-0.15612
-0.140229
-0.123925
-0.107203
-0.0900592
-0.0724916
-0.0544977
-0.0360762
-0.0172266
0.00205078
0.0217545
0.0418823
0.0624304
0.0833944
0.104768
0.126544
0.148715
0.171268
0.194195
0.21748
0.24111
0.265067
0.289334
0.313891
0.338717
0.363788
0.389078
0.414561
0.440209
0.465991
0.491874
0.517826
0.543811
0.569792
0.595731
0.62159
0.647327
0.6729
0.698269
0.72339
0.748219
0.772714
0.79683
0.820523
0.843752
0.866473
0.888645
0.910228
0.931181
0.951468
0.971052
0.989901
1.00798
1.02526
1.04172
1.05733
1.07207
1.08593
1.09888
1.11092
1.12203
1.13221
1.14147
1.14979
1.15718
1.16366
1.16922
1.17389
1.17767
1.18059
1.18267
1.18392
1.18437
1.18404
1.18297
1.18117
1.17868
1.17553
1.17175
1.16736
1.1624
1.15689
1.15086
1.14434
1.13736
1.12994
1.12211
1.11388
1.1053
1.09636
1.08711
1.07754
1.06769
1.05758
1.04721
1.03662
1.02578
1.01487
1.00413
0.997528
-0.572986
-0.571851
-0.571229
-0.570849
-0.570395
-0.569867
-0.569324
-0.568773
-0.568203
-0.567611
-0.566996
-0.566361
-0.565702
-0.56502
-0.564312
-0.56358
-0.56282
-0.562033
-0.561218
-0.560372
-0.559496
-0.558588
-0.557646
-0.556669
-0.555657
-0.554607
-0.553518
-0.552389
-0.551218
-0.550004
-0.548744
-0.547437
-0.546081
-0.544674
-0.543214
-0.5417
-0.540128
-0.538498
-0.536805
-0.535049
-0.533226
-0.531334
-0.52937
-0.527332
-0.525216
-0.523019
-0.520739
-0.518372
-0.515914
-0.513363
-0.510714
-0.507965
-0.50511
-0.502146
-0.499069
-0.495874
-0.492558
-0.489115
-0.48554
-0.48183
-0.477978
-0.473979
-0.469829
-0.465521
-0.46105
-0.456409
-0.451593
-0.446596
-0.44141
-0.43603
-0.430449
-0.424659
-0.418653
-0.412425
-0.405966
-0.399269
-0.392326
-0.385128
-0.377669
-0.36994
-0.361931
-0.353635
-0.345043
-0.336146
-0.326935
-0.317401
-0.307536
-0.297329
-0.286773
-0.275857
-0.264574
-0.252913
-0.240866
-0.228425
-0.21558
-0.202323
-0.188646
-0.174541
-0.16
-0.145017
-0.129584
-0.113695
-0.0973435
-0.0805254
-0.0632357
-0.0454706
-0.0272269
-0.00850262
0.0107036
0.0303919
0.0505616
0.0712106
0.0923356
0.113932
0.135994
0.158515
0.181484
0.204893
0.228727
0.252975
0.277619
0.302642
0.328025
0.353747
0.379783
0.406109
0.432698
0.459519
0.486542
0.513733
0.541058
0.568479
0.595959
0.623455
0.650927
0.678332
0.705624
0.732758
0.759687
0.786365
0.812742
0.83877
0.864401
0.889588
0.91428
0.938432
0.961997
0.98493
1.00719
1.02872
1.0495
1.06948
1.08863
1.10691
1.12429
1.14075
1.15626
1.17079
1.18434
1.19689
1.20842
1.21893
1.22842
1.23688
1.24432
1.25074
1.25616
1.26058
1.26403
1.26652
1.26807
1.2687
1.26845
1.26734
1.2654
1.26266
1.25915
1.2549
1.24995
1.24434
1.23809
1.23123
1.22381
1.21585
1.20739
1.19845
1.18906
1.17926
1.16906
1.15849
1.14758
1.13634
1.12479
1.11296
1.10085
1.08849
1.07588
1.06305
1.04994
1.03681
1.0225
1.0092
-1.00924
-1.00744
-1.00621
-1.00524
-1.00418
-1.00303
-1.00184
-1.00063
-0.999392
-0.998113
-0.996796
-0.995442
-0.994048
-0.992613
-0.991137
-0.989617
-0.988053
-0.986443
-0.984785
-0.983079
-0.981322
-0.979513
-0.977651
-0.975733
-0.973758
-0.971724
-0.969629
-0.967471
-0.965249
-0.962959
-0.9606
-0.95817
-0.955666
-0.953086
-0.950427
-0.947686
-0.944862
-0.941951
-0.938951
-0.935858
-0.932669
-0.929382
-0.925993
-0.922498
-0.918894
-0.915177
-0.911344
-0.907391
-0.903314
-0.899108
-0.894769
-0.890294
-0.885677
-0.880913
-0.875998
-0.870927
-0.865694
-0.860295
-0.854723
-0.848973
-0.84304
-0.836916
-0.830597
-0.824075
-0.817344
-0.810398
-0.803228
-0.795829
-0.788193
-0.780313
-0.77218
-0.763787
-0.755127
-0.74619
-0.736968
-0.727454
-0.717638
-0.707511
-0.697064
-0.686289
-0.675176
-0.663716
-0.651899
-0.639717
-0.627158
-0.614214
-0.600875
-0.587132
-0.572974
-0.558393
-0.543379
-0.527922
-0.512014
-0.495645
-0.478808
-0.461493
-0.443692
-0.425399
-0.406606
-0.387305
-0.367492
-0.347161
-0.326307
-0.304926
-0.283014
-0.260571
-0.237595
-0.214085
-0.190043
-0.165472
-0.140375
-0.114756
-0.0886239
-0.0619855
-0.0348511
-0.00723239
0.0208573
0.0494025
0.0783859
0.107788
0.137588
0.167762
0.198285
0.229128
0.260262
0.291654
0.323271
0.355076
0.387031
0.419095
0.451226
0.48338
0.515511
0.54757
0.579511
0.611282
0.642832
0.674109
0.70506
0.735633
0.765774
0.79543
0.824547
0.853075
0.88096
0.908154
0.934608
0.960274
0.985108
1.00907
1.03211
1.0542
1.07531
1.0954
1.11444
1.13241
1.14929
1.16507
1.17972
1.19324
1.20563
1.21688
1.22699
1.23597
1.24384
1.25059
1.25625
1.26084
1.26438
1.26689
1.26841
1.26895
1.26856
1.26725
1.26508
1.26208
1.25827
1.2537
1.2484
1.24241
1.23577
1.22851
1.22067
1.21228
1.20337
1.19398
1.18413
1.17385
1.16317
1.15211
1.1407
1.12894
1.11686
1.10447
1.09179
1.07883
1.06558
1.05208
1.03825
1.02432
1.01009
0.999917
-1.05636
-1.05474
-1.05366
-1.05285
-1.05195
-1.05095
-1.04993
-1.04889
-1.04781
-1.0467
-1.04555
-1.04437
-1.04314
-1.04188
-1.04058
-1.03923
-1.03784
-1.0364
-1.03492
-1.03339
-1.03181
-1.03017
-1.02848
-1.02674
-1.02494
-1.02307
-1.02115
-1.01916
-1.0171
-1.01497
-1.01278
-1.0105
-1.00815
-1.00572
-1.00321
-1.00061
-0.997925
-0.995146
-0.992271
-0.989297
-0.98622
-0.983037
-0.979743
-0.976336
-0.97281
-0.969161
-0.965386
-0.961478
-0.957435
-0.953249
-0.948918
-0.944434
-0.939794
-0.93499
-0.930018
-0.924872
-0.919545
-0.91403
-0.908322
-0.902414
-0.896298
-0.889967
-0.883414
-0.876632
-0.869613
-0.862347
-0.854829
-0.847048
-0.838996
-0.830665
-0.822045
-0.813127
-0.803902
-0.794359
-0.78449
-0.774284
-0.76373
-0.752819
-0.74154
-0.729883
-0.717836
-0.70539
-0.692532
-0.679253
-0.665541
-0.651385
-0.636774
-0.621698
-0.606146
-0.590107
-0.57357
-0.556527
-0.538965
-0.520877
-0.502253
-0.483084
-0.463361
-0.443078
-0.422226
-0.400801
-0.378795
-0.356205
-0.333026
-0.309256
-0.284894
-0.259938
-0.23439
-0.208251
-0.181526
-0.15422
-0.12634
-0.0978939
-0.0688928
-0.039349
-0.00927687
0.021307
0.052384
0.0839333
0.115932
0.148354
0.181172
0.214356
0.247873
0.281689
0.315766
0.350064
0.384542
0.419156
0.453859
0.488603
0.523338
0.558012
0.592572
0.626962
0.661128
0.695011
0.728555
0.761701
0.79439
0.826564
0.858165
0.889137
0.919421
0.948964
0.977712
1.00561
1.03262
1.05868
1.08375
1.10779
1.13077
1.15264
1.17338
1.19296
1.21136
1.22855
1.24452
1.25926
1.27276
1.28502
1.29604
1.30583
1.31439
1.32174
1.32789
1.33287
1.3367
1.33939
1.34099
1.34153
1.34103
1.33953
1.33708
1.3337
1.32944
1.32433
1.31843
1.31176
1.30437
1.2963
1.28759
1.27827
1.26839
1.25798
1.24707
1.2357
1.22389
1.21167
1.19907
1.18611
1.17281
1.15919
1.14526
1.13104
1.11653
1.10174
1.08667
1.07135
1.05568
1.03996
1.02317
1.00851
-1.45579
-1.45357
-1.45194
-1.4506
-1.44915
-1.44759
-1.44598
-1.44435
-1.44266
-1.44092
-1.43913
-1.43729
-1.4354
-1.43345
-1.43144
-1.42937
-1.42724
-1.42505
-1.42279
-1.42046
-1.41806
-1.4156
-1.41305
-1.41043
-1.40773
-1.40495
-1.40209
-1.39913
-1.39609
-1.39295
-1.38972
-1.38639
-1.38295
-1.37941
-1.37576
-1.372
-1.36812
-1.36411
-1.35999
-1.35573
-1.35134
-1.34681
-1.34214
-1.33732
-1.33235
-1.32722
-1.32193
-1.31647
-1.31084
-1.30503
-1.29903
-1.29284
-1.28645
-1.27986
-1.27306
-1.26603
-1.25879
-1.25131
-1.24359
-1.23562
-1.22739
-1.2189
-1.21014
-1.2011
-1.19176
-1.18213
-1.17218
-1.16192
-1.15133
-1.1404
-1.12912
-1.11748
-1.10547
-1.09309
-1.08031
-1.06712
-1.05353
-1.03951
-1.02505
-1.01014
-0.994774
-0.978935
-0.962613
-0.945796
-0.928472
-0.910629
-0.892257
-0.873343
-0.853877
-0.833847
-0.813244
-0.792056
-0.770275
-0.747891
-0.724895
-0.701279
-0.677036
-0.652158
-0.626641
-0.600479
-0.573669
-0.546208
-0.518094
-0.489327
-0.459908
-0.429841
-0.399129
-0.367778
-0.335797
-0.303194
-0.269983
-0.236176
-0.20179
-0.166842
-0.131354
-0.0953483
-0.0588505
-0.0218885
0.0155071
0.0533033
0.0914643
0.129952
0.168725
0.207741
0.246953
0.286314
0.325772
0.365275
0.404769
0.444196
0.483498
0.522616
0.561487
0.600051
0.638243
0.676
0.713259
0.749956
0.786027
0.82141
0.856043
0.889866
0.92282
0.954849
0.985899
1.01592
1.04486
1.07267
1.09932
1.12476
1.14897
1.1719
1.19354
1.21386
1.23284
1.25048
1.26676
1.28168
1.29524
1.30745
1.31831
1.32784
1.33606
1.34298
1.34863
1.35304
1.35624
1.35826
1.35913
1.35891
1.35762
1.3553
1.35201
1.34777
1.34265
1.33667
1.32989
1.32235
1.31409
1.30515
1.29558
1.28542
1.2747
1.26346
1.25173
1.23955
1.22695
1.21394
1.20057
1.18684
1.17278
1.15839
1.14371
1.12872
1.11344
1.09787
1.082
1.06586
1.04934
1.03271
1.01543
1.00222
-1.61539
-1.61313
-1.61145
-1.61007
-1.60857
-1.60696
-1.60531
-1.60361
-1.60187
-1.60007
-1.59821
-1.59629
-1.59432
-1.59229
-1.59019
-1.58803
-1.5858
-1.5835
-1.58113
-1.57868
-1.57616
-1.57356
-1.57087
-1.5681
-1.56525
-1.5623
-1.55925
-1.55611
-1.55287
-1.54953
-1.54607
-1.54251
-1.53883
-1.53503
-1.5311
-1.52705
-1.52287
-1.51855
-1.51408
-1.50947
-1.50471
-1.49979
-1.49471
-1.48947
-1.48404
-1.47844
-1.47265
-1.46667
-1.46049
-1.4541
-1.44751
-1.44069
-1.43364
-1.42635
-1.41883
-1.41105
-1.40301
-1.3947
-1.38612
-1.37724
-1.36808
-1.3586
-1.34881
-1.33869
-1.32824
-1.31744
-1.30628
-1.29475
-1.28284
-1.27053
-1.25783
-1.2447
-1.23115
-1.21716
-1.20272
-1.1878
-1.17241
-1.15653
-1.14015
-1.12324
-1.1058
-1.08783
-1.06929
-1.05018
-1.03049
-1.01021
-0.989317
-0.967805
-0.945662
-0.922876
-0.899436
-0.875332
-0.850553
-0.825092
-0.79894
-0.772088
-0.744532
-0.716264
-0.687281
-0.65758
-0.627159
-0.596018
-0.564157
-0.53158
-0.498291
-0.464296
-0.429605
-0.394227
-0.358176
-0.321466
-0.284115
-0.246142
-0.207571
-0.168425
-0.128734
-0.0885263
-0.0478364
-0.00670024
0.0348433
0.0767526
0.118983
0.161487
0.204215
0.247114
0.29013
0.333203
0.376276
0.419285
0.462168
0.504859
0.547291
0.589397
0.631107
0.672352
0.713063
0.753171
0.792606
0.8313
0.869186
0.906198
0.942273
0.977349
1.01137
1.04427
1.076
1.10652
1.13578
1.16373
1.19033
1.21556
1.23939
1.26179
1.28274
1.30223
1.32025
1.33679
1.35186
1.36545
1.37759
1.38827
1.39753
1.40537
1.41184
1.41696
1.42075
1.42326
1.42452
1.42458
1.42348
1.42126
1.41797
1.41365
1.40835
1.40213
1.39502
1.38708
1.37835
1.36889
1.35873
1.34792
1.33651
1.32453
1.31202
1.29902
1.28557
1.27169
1.25742
1.24278
1.22779
1.21247
1.19684
1.18091
1.16469
1.14819
1.13141
1.11434
1.09697
1.07933
1.06129
1.04319
1.02403
1.00794
-2.01323
-2.01038
-2.00814
-2.00621
-2.00416
-2.00197
-1.99972
-1.99741
-1.99504
-1.9926
-1.99008
-1.98749
-1.98483
-1.98208
-1.97925
-1.97634
-1.97335
-1.97026
-1.96708
-1.96381
-1.96043
-1.95696
-1.95338
-1.94969
-1.94589
-1.94197
-1.93794
-1.93378
-1.92949
-1.92507
-1.92052
-1.91583
-1.91099
-1.906
-1.90086
-1.89555
-1.89008
-1.88445
-1.87863
-1.87263
-1.86645
-1.86007
-1.85349
-1.8467
-1.8397
-1.83248
-1.82502
-1.81733
-1.8094
-1.80122
-1.79277
-1.78406
-1.77507
-1.7658
-1.75622
-1.74635
-1.73615
-1.72564
-1.71479
-1.70359
-1.69203
-1.68011
-1.66781
-1.65512
-1.64203
-1.62852
-1.61458
-1.60021
-1.58538
-1.57009
-1.55432
-1.53806
-1.52129
-1.504
-1.48618
-1.46781
-1.44889
-1.42938
-1.40929
-1.38859
-1.36728
-1.34534
-1.32275
-1.2995
-1.27558
-1.25098
-1.22567
-1.19966
-1.17293
-1.14547
-1.11726
-1.0883
-1.05858
-1.02809
-0.996828
-0.964783
-0.931952
-0.898332
-0.863921
-0.828721
-0.792731
-0.755956
-0.718402
-0.680074
-0.640984
-0.601143
-0.560564
-0.519266
-0.477266
-0.434588
-0.391256
-0.347297
-0.302742
-0.257625
-0.211983
-0.165854
-0.119283
-0.0723133
-0.0249954
0.0226192
0.070476
0.118517
0.166683
0.214909
0.263132
0.311283
0.359293
0.407091
0.454604
0.501758
0.548478
0.594688
0.640313
0.685278
0.729506
0.772924
0.815459
0.857039
0.897594
0.937059
0.975368
1.01246
1.04828
1.08277
1.11588
1.14758
1.1778
1.20653
1.23372
1.25936
1.28342
1.30589
1.32675
1.34601
1.36365
1.37969
1.39414
1.40701
1.41832
1.42809
1.43635
1.44314
1.44849
1.45243
1.45501
1.45628
1.45627
1.45503
1.45263
1.44909
1.44449
1.43886
1.43227
1.42476
1.41638
1.40719
1.39724
1.38657
1.37524
1.36328
1.35074
1.33767
1.32409
1.31006
1.29559
1.28073
1.26549
1.24991
1.23401
1.21779
1.20128
1.18448
1.1674
1.15005
1.13241
1.11448
1.09625
1.07773
1.0588
1.03977
1.01985
1.00413
-2.26989
-2.26678
-2.2643
-2.26213
-2.25983
-2.25738
-2.25486
-2.25228
-2.24962
-2.24689
-2.24406
-2.24116
-2.23817
-2.23508
-2.23191
-2.22863
-2.22526
-2.22178
-2.2182
-2.21451
-2.2107
-2.20678
-2.20274
-2.19857
-2.19427
-2.18984
-2.18528
-2.18056
-2.17571
-2.1707
-2.16553
-2.1602
-2.1547
-2.14903
-2.14318
-2.13714
-2.13091
-2.12449
-2.11786
-2.11101
-2.10395
-2.09666
-2.08914
-2.08138
-2.07337
-2.0651
-2.05656
-2.04775
-2.03865
-2.02926
-2.01957
-2.00956
-1.99923
-1.98857
-1.97756
-1.9662
-1.95446
-1.94235
-1.92985
-1.91695
-1.90363
-1.88988
-1.87569
-1.86105
-1.84594
-1.83034
-1.81425
-1.79765
-1.78052
-1.76285
-1.74463
-1.72584
-1.70646
-1.68648
-1.66589
-1.64466
-1.62279
-1.60025
-1.57703
-1.55313
-1.52851
-1.50317
-1.47709
-1.45026
-1.42266
-1.39429
-1.36512
-1.33515
-1.30436
-1.27275
-1.2403
-1.207
-1.17286
-1.13786
-1.10199
-1.06526
-1.02766
-0.98919
-0.949857
-0.909661
-0.86861
-0.82671
-0.783974
-0.740413
-0.696043
-0.650882
-0.604953
-0.558279
-0.510887
-0.462807
-0.414073
-0.364722
-0.314794
-0.264332
-0.213382
-0.161996
-0.110226
-0.0581291
-0.00576477
0.0468039
0.0995112
0.152288
0.205065
0.257766
0.310316
0.362639
0.414654
0.46628
0.517437
0.568043
0.618013
0.667268
0.715724
0.763301
0.80992
0.855502
0.899974
0.943262
0.985296
1.02601
1.06534
1.10323
1.13963
1.17448
1.20775
1.23939
1.26936
1.29765
1.32423
1.34908
1.37219
1.39356
1.41318
1.43107
1.44722
1.46167
1.47442
1.48551
1.49496
1.50282
1.50911
1.51387
1.51716
1.51903
1.51951
1.51866
1.51654
1.51319
1.50869
1.50307
1.4964
1.48874
1.48013
1.47064
1.46032
1.44923
1.43741
1.42492
1.4118
1.3981
1.38386
1.36913
1.35395
1.33834
1.32234
1.30598
1.28928
1.27228
1.25498
1.2374
1.21955
1.20144
1.18306
1.16443
1.14553
1.12635
1.10686
1.08709
1.06689
1.04661
1.02524
1.00766
-2.69269
-2.68892
-2.6858
-2.68301
-2.68007
-2.67695
-2.67375
-2.67047
-2.66709
-2.66361
-2.66003
-2.65635
-2.65256
-2.64865
-2.64463
-2.64049
-2.63623
-2.63184
-2.62731
-2.62266
-2.61786
-2.61292
-2.60783
-2.60259
-2.59719
-2.59163
-2.58589
-2.57998
-2.5739
-2.56762
-2.56116
-2.55449
-2.54763
-2.54055
-2.53325
-2.52573
-2.51797
-2.50997
-2.50173
-2.49323
-2.48446
-2.47543
-2.46611
-2.45649
-2.44658
-2.43636
-2.42582
-2.41495
-2.40373
-2.39217
-2.38024
-2.36794
-2.35525
-2.34216
-2.32866
-2.31474
-2.30038
-2.28557
-2.2703
-2.25455
-2.23831
-2.22156
-2.20429
-2.18649
-2.16813
-2.1492
-2.1297
-2.10959
-2.08887
-2.06752
-2.04552
-2.02285
-1.9995
-1.97546
-1.9507
-1.92521
-1.89897
-1.87196
-1.84417
-1.81559
-1.78619
-1.75597
-1.7249
-1.69298
-1.66018
-1.62651
-1.59193
-1.55645
-1.52005
-1.48273
-1.44447
-1.40527
-1.36513
-1.32404
-1.28199
-1.239
-1.19507
-1.15019
-1.10437
-1.05763
-1.00997
-0.961416
-0.911978
-0.861679
-0.810541
-0.758592
-0.705862
-0.652384
-0.598195
-0.543336
-0.48785
-0.431785
-0.375193
-0.318128
-0.260649
-0.202818
-0.144701
-0.0863653
-0.0278839
0.0306685
0.0892142
0.147673
0.205962
0.263996
0.321689
0.378954
0.435702
0.491842
0.547286
0.601944
0.655727
0.708548
0.760319
0.810958
0.860383
0.908514
0.955276
1.0006
1.04441
1.08665
1.12727
1.1662
1.2034
1.23883
1.27245
1.30423
1.33415
1.36219
1.38834
1.41259
1.43494
1.4554
1.47399
1.49071
1.5056
1.51868
1.52998
1.53954
1.54741
1.55362
1.55822
1.56127
1.56282
1.56293
1.56165
1.55904
1.55517
1.55009
1.54386
1.53656
1.52822
1.51893
1.50873
1.49769
1.48585
1.47329
1.46004
1.44616
1.4317
1.41671
1.40122
1.38527
1.36892
1.35218
1.33508
1.31767
1.29995
1.28196
1.2637
1.24518
1.22642
1.20741
1.18816
1.16866
1.1489
1.12886
1.10851
1.08787
1.06679
1.04562
1.02339
1.00561
-3.03978
-3.03554
-3.03194
-3.0287
-3.02528
-3.02167
-3.01796
-3.01416
-3.01024
-3.00621
-3.00206
-2.99778
-2.99338
-2.98885
-2.98418
-2.97938
-2.97443
-2.96933
-2.96408
-2.95867
-2.95309
-2.94735
-2.94143
-2.93534
-2.92906
-2.92258
-2.91591
-2.90904
-2.90195
-2.89464
-2.88712
-2.87935
-2.87135
-2.8631
-2.8546
-2.84583
-2.83679
-2.82746
-2.81785
-2.80793
-2.79771
-2.78716
-2.77629
-2.76507
-2.7535
-2.74157
-2.72926
-2.71657
-2.70347
-2.68997
-2.67603
-2.66167
-2.64684
-2.63156
-2.61579
-2.59953
-2.58276
-2.56546
-2.54762
-2.52923
-2.51026
-2.49071
-2.47055
-2.44976
-2.42834
-2.40625
-2.38349
-2.36004
-2.33587
-2.31098
-2.28533
-2.25892
-2.23172
-2.20373
-2.17491
-2.14525
-2.11473
-2.08334
-2.05106
-2.01787
-1.98375
-1.9487
-1.91269
-1.87571
-1.83775
-1.7988
-1.75885
-1.71788
-1.67588
-1.63286
-1.58881
-1.54371
-1.49758
-1.45041
-1.40221
-1.35297
-1.30271
-1.25144
-1.19917
-1.14592
-1.09171
-1.03655
-0.980483
-0.923529
-0.865723
-0.807101
-0.747705
-0.687579
-0.62677
-0.565332
-0.50332
-0.440795
-0.37782
-0.314463
-0.250796
-0.186893
-0.122833
-0.0586991
0.00542557
0.0694529
0.133293
0.196853
0.260039
0.322757
0.384908
0.446396
0.507124
0.566993
0.625909
0.683775
0.740498
0.795988
0.850154
0.902912
0.954181
1.00388
1.05194
1.0983
1.14288
1.18563
1.2265
1.26545
1.30244
1.33743
1.37039
1.40132
1.4302
1.45702
1.48178
1.50449
1.52517
1.54383
1.56051
1.57522
1.58801
1.59891
1.60798
1.61526
1.6208
1.62466
1.6269
1.62758
1.62676
1.6245
1.62088
1.61595
1.60978
1.60244
1.594
1.58452
1.57406
1.56269
1.55046
1.53745
1.5237
1.50928
1.49423
1.4786
1.46245
1.44582
1.42875
1.41128
1.39345
1.37528
1.3568
1.33805
1.31904
1.29979
1.2803
1.2606
1.24068
1.22054
1.20018
1.17958
1.15874
1.13763
1.11622
1.09451
1.07236
1.05013
1.02672
1.00766
-3.50847
-3.5034
-3.49902
-3.49499
-3.49078
-3.48634
-3.48178
-3.4771
-3.47229
-3.46733
-3.46223
-3.45698
-3.45158
-3.44602
-3.44029
-3.4344
-3.42833
-3.42208
-3.41565
-3.40903
-3.40221
-3.39518
-3.38795
-3.3805
-3.37283
-3.36492
-3.35678
-3.34839