/*--------------------------------*- C++ -*----------------------------------*\
  =========                 |
  \\      /  F ield         | OpenFOAM: The Open Source CFD Toolbox
   \\    /   O peration     | Website:  https://openfoam.org
    \\  /    A nd           | Version:  7
     \\/     M anipulation  |
\*---------------------------------------------------------------------------*/
FoamFile
{
    version     2.0;
    format      ascii;
    class       surfaceScalarField;
    location    "1";
    object      phi;
}
// * * * * * * * * * * * * * * * * * * * * * * * * * * * * * * * * * * * * * //

dimensions      [0 3 -1 0 0 0 0];

internalField   nonuniform List<scalar> 
304702
(
37.6179
3.57701e-05
-37.6179
37.6179
3.67161e-05
37.6179
3.76068e-05
37.6179
3.85209e-05
37.6179
3.95365e-05
37.6179
4.04209e-05
37.6179
4.14861e-05
37.6179
4.24994e-05
37.6179
4.36171e-05
37.6179
4.46844e-05
37.6179
4.57799e-05
37.6179
4.69043e-05
37.6179
4.81364e-05
37.6178
4.93214e-05
37.6178
5.05379e-05
37.6178
5.18648e-05
37.6178
5.31473e-05
37.6178
5.44643e-05
37.6178
5.58945e-05
37.6178
5.72835e-05
37.6178
5.871e-05
37.6178
6.02531e-05
37.6178
6.17583e-05
37.6178
6.33046e-05
37.6178
6.4971e-05
37.6178
6.66811e-05
37.6177
6.82805e-05
37.6177
7.00819e-05
37.6177
7.19311e-05
37.6177
7.37516e-05
37.6177
7.57008e-05
37.6177
7.76245e-05
37.6177
7.96022e-05
37.6177
8.17133e-05
37.6177
8.38819e-05
37.6177
8.6032e-05
37.6176
8.82431e-05
37.6176
9.05952e-05
37.6176
9.30123e-05
37.6176
9.54188e-05
37.6176
9.79725e-05
37.6176
0.000100598
37.6176
0.000103219
37.6176
0.000105917
37.6175
0.000108849
37.6175
0.000111707
37.6175
0.000114727
37.6175
0.000117756
37.6175
0.000120952
37.6175
0.000124241
37.6175
0.000127626
37.6174
0.000131033
37.6174
0.000134619
37.6174
0.000138311
37.6174
0.000142113
37.6174
0.000146028
37.6174
0.000149982
37.6173
0.000154212
37.6173
0.000158412
37.6173
0.000162819
37.6173
0.00016736
37.6173
0.000172116
37.6172
0.000176861
37.6172
0.000181831
37.6172
0.000186954
37.6172
0.000192313
37.6172
0.000197681
37.6171
0.000203374
37.6171
0.000209164
37.6171
0.000215136
37.6171
0.000221295
37.617
0.000227648
37.617
0.00023428
37.617
0.000241043
37.617
0.00024802
37.6169
0.000255297
37.6169
0.000262726
37.6169
0.000270471
37.6168
0.000278384
37.6168
0.000286551
37.6168
0.000295136
37.6168
0.000303761
37.6167
0.000312899
37.6167
0.000322172
37.6167
0.000331745
37.6166
0.000341783
37.6166
0.000351986
37.6166
0.000362597
37.6165
0.00037355
37.6165
0.000384854
37.6164
0.000396522
37.6164
0.000408564
37.6164
0.000420993
37.6163
0.00043382
37.6163
0.000447057
37.6162
0.000460795
37.6162
0.000474812
37.6161
0.000489511
37.6161
0.000504436
37.6161
0.00051999
37.616
0.000535953
37.616
0.000552571
37.6159
0.000569467
37.6159
0.000587123
37.6158
0.000605161
37.6157
0.000623828
37.6157
0.000643059
37.6156
0.000662788
37.6156
0.000683262
37.6155
0.000704259
37.6155
0.000725946
37.6154
0.000748101
37.6153
0.000771046
37.6153
0.000794557
37.6152
0.000818799
37.6151
0.000843625
37.6151
0.000869276
37.615
0.000895449
37.6149
0.000922303
37.6148
0.000949999
37.6148
0.000978306
37.6147
0.00100731
37.6146
0.001037
37.6145
0.00106745
37.6144
0.00109852
37.6144
0.00113034
37.6143
0.00116276
37.6142
0.00119593
37.6141
0.00122974
37.614
0.00126427
37.6139
0.00129927
37.6138
0.00133502
37.6137
0.00137127
37.6136
0.00140815
37.6135
0.00144549
37.6134
0.00148339
37.6133
0.00152183
37.6132
0.00156053
37.6131
0.00159977
37.613
0.00163926
37.6129
0.00167911
37.6127
0.00171913
37.6126
0.00175947
37.6125
0.00179978
37.6124
0.00184031
37.6123
0.00188075
37.6122
0.0019212
37.612
0.0019615
37.6119
0.00200151
37.6118
0.00204139
37.6117
0.00208081
37.6115
0.00211987
37.6114
0.00215839
37.6113
0.00219623
37.6112
0.00223354
37.611
0.00227006
37.6109
0.00230566
37.6108
0.00234039
37.6107
0.0023741
37.6105
0.0024068
37.6104
0.00243825
37.6103
0.00246862
37.6101
0.00249752
37.61
0.0025252
37.6099
0.00255145
37.6098
0.00257622
37.6096
0.00259946
37.6095
0.0026212
37.6094
0.00264135
37.6093
0.00265988
37.6092
0.00267686
37.609
0.0026922
37.6089
0.00270591
37.6088
0.00271802
37.6087
0.00272872
37.6086
0.00273781
37.6085
0.00274552
37.6084
0.00275183
37.6083
0.00275684
37.6082
0.00276074
37.6081
0.00276364
37.608
0.00276554
37.6079
0.00276683
37.6078
0.00276746
37.6077
0.00276778
37.6076
0.00276802
37.6075
0.00276835
37.6074
0.00276912
37.6073
0.00277048
37.6072
0.00277298
37.6071
0.00277682
37.607
0.00278246
37.6069
0.00279023
37.6069
0.00280057
37.6068
0.00281409
37.6067
0.00283112
37.6066
0.00285218
37.6065
0.0028779
37.6064
0.00290926
37.6063
0.00294721
37.6062
0.00300251
0.00307691
35.7969
3.44009e-05
-35.7969
35.7969
3.52342e-05
35.7969
3.60914e-05
35.7969
3.705e-05
35.7969
3.79545e-05
35.7969
3.89614e-05
35.7969
3.99158e-05
35.7969
4.0974e-05
35.7969
4.19814e-05
35.7969
4.30942e-05
35.7969
4.42355e-05
35.7969
4.53284e-05
35.7969
4.65294e-05
35.7969
4.76838e-05
35.7969
4.89481e-05
35.7969
5.01678e-05
35.7969
5.14994e-05
35.7969
5.28663e-05
35.7969
5.41917e-05
35.7969
5.57102e-05
35.7969
5.71116e-05
35.7969
5.85529e-05
35.7969
6.01131e-05
35.7969
6.17935e-05
35.7969
6.32842e-05
35.7969
6.50534e-05
35.7969
6.67914e-05
35.7969
6.84997e-05
35.7969
7.03353e-05
35.7969
7.22222e-05
35.7969
7.41619e-05
35.7969
7.61561e-05
35.7969
7.82067e-05
35.797
8.03155e-05
35.797
8.24843e-05
35.797
8.47152e-05
35.797
8.70102e-05
35.797
8.93713e-05
35.797
9.18009e-05
35.797
9.43011e-05
35.797
9.68744e-05
35.797
9.96009e-05
35.797
0.000102327
35.797
0.000105135
35.797
0.000108025
35.797
0.000111002
35.797
0.000114145
35.797
0.000117381
35.797
0.000120556
35.797
0.000123985
35.797
0.000127515
35.797
0.000131073
35.797
0.00013474
35.797
0.000138675
35.797
0.000142493
35.797
0.000146665
35.797
0.000150805
35.797
0.000155152
35.797
0.000159555
35.797
0.000164251
35.797
0.000168934
35.797
0.00017392
35.797
0.000178902
35.797
0.000184121
35.7969
0.000189503
35.7969
0.000195131
35.7969
0.000200779
35.7969
0.000206763
35.7969
0.000212856
35.7969
0.000219143
35.7969
0.000225707
35.7969
0.000232401
35.7969
0.000239308
35.7969
0.000246593
35.7969
0.000253873
35.7969
0.000261623
35.7969
0.000269463
35.7969
0.000277633
35.7969
0.000286064
35.7969
0.000294766
35.7969
0.000303747
35.7969
0.000313016
35.7968
0.000322584
35.7968
0.000332459
35.7968
0.00034273
35.7968
0.000353251
35.7968
0.000364188
35.7968
0.000375398
35.7968
0.000387045
35.7968
0.000398986
35.7967
0.000411466
35.7967
0.000424185
35.7967
0.000437466
35.7967
0.00045101
35.7967
0.000465141
35.7967
0.000479637
35.7966
0.000494668
35.7966
0.000510089
35.7966
0.000526069
35.7966
0.000542544
35.7965
0.000559448
35.7965
0.000577027
35.7965
0.000595062
35.7965
0.000613642
35.7964
0.000632781
35.7964
0.000652568
35.7964
0.00067286
35.7964
0.000693903
35.7963
0.000715396
35.7963
0.000737663
35.7963
0.000760403
35.7962
0.000783937
35.7962
0.000808119
35.7961
0.00083288
35.7961
0.000858383
35.7961
0.000884559
35.796
0.00091149
35.796
0.000939026
35.7959
0.000967249
35.7959
0.000996239
35.7958
0.00102592
35.7958
0.00105629
35.7957
0.00108742
35.7957
0.00111916
35.7956
0.00115165
35.7956
0.0011848
35.7955
0.00121862
35.7955
0.00125308
35.7954
0.00128825
35.7953
0.00132402
35.7953
0.00136039
35.7952
0.00139733
35.7952
0.00143488
35.7951
0.00147294
35.795
0.00151149
35.795
0.00155055
35.7949
0.00158994
35.7948
0.00162977
35.7948
0.00166991
35.7947
0.0017104
35.7946
0.0017511
35.7945
0.00179196
35.7945
0.001833
35.7944
0.001874
35.7943
0.00191513
35.7942
0.00195609
35.7942
0.00199696
35.7941
0.0020376
35.794
0.002078
35.7939
0.00211802
35.7939
0.00215756
35.7938
0.00219664
35.7937
0.00223509
35.7936
0.00227292
35.7936
0.00230995
35.7935
0.00234619
35.7934
0.0023814
35.7933
0.00241574
35.7933
0.00244898
35.7932
0.00248104
35.7931
0.00251193
35.793
0.0025415
35.793
0.00256984
35.7929
0.0025966
35.7928
0.0026221
35.7927
0.00264607
35.7927
0.00266838
35.7926
0.00268932
35.7925
0.00270848
35.7925
0.00272623
35.7924
0.00274226
35.7923
0.00275672
35.7923
0.00276971
35.7922
0.00278102
35.7922
0.00279086
35.7921
0.00279926
35.792
0.00280631
35.792
0.00281207
35.7919
0.0028165
35.7919
0.00282
35.7918
0.00282249
35.7917
0.0028241
35.7917
0.00282516
35.7916
0.00282577
35.7916
0.00282599
35.7915
0.00282635
35.7914
0.00282687
35.7914
0.002828
35.7913
0.00282978
35.7913
0.0028328
35.7912
0.00283742
35.7911
0.00284387
35.7911
0.00285266
35.791
0.00286426
35.791
0.00287925
35.7909
0.00289812
35.7908
0.00292147
35.7907
0.00294993
35.7907
0.00298447
35.7906
0.00302496
35.7905
0.00306768
0.00309655
34.0697
3.8397e-05
-34.0697
34.0697
3.9314e-05
34.0697
4.03341e-05
34.0697
4.13799e-05
34.0697
4.24515e-05
34.0697
4.3472e-05
34.0697
4.46758e-05
34.0697
4.56745e-05
34.0697
4.69359e-05
34.0697
4.80717e-05
34.0697
4.93942e-05
34.0697
5.05929e-05
34.0697
5.19024e-05
34.0697
5.32457e-05
34.0697
5.45461e-05
34.0697
5.6038e-05
34.0697
5.74115e-05
34.0697
5.89787e-05
34.0696
6.05074e-05
34.0696
6.19989e-05
34.0696
6.36879e-05
34.0696
6.52644e-05
34.0696
6.70409e-05
34.0696
6.87855e-05
34.0696
7.05774e-05
34.0696
7.2418e-05
34.0696
7.43868e-05
34.0696
7.62518e-05
34.0696
7.8326e-05
34.0696
8.03777e-05
34.0696
8.25642e-05
34.0696
8.46539e-05
34.0695
8.70378e-05
34.0695
8.9251e-05
34.0695
9.16845e-05
34.0695
9.41849e-05
34.0695
9.66765e-05
34.0695
9.93172e-05
34.0695
0.000101954
34.0695
0.000104744
34.0695
0.000107613
34.0695
0.000110485
34.0694
0.000113519
34.0694
0.00011664
34.0694
0.00011985
34.0694
0.000123074
34.0694
0.00012655
34.0694
0.000130047
34.0694
0.000133569
34.0694
0.000137351
34.0693
0.000141165
34.0693
0.000145092
34.0693
0.000149136
34.0693
0.000153378
34.0693
0.000157667
34.0693
0.000162085
34.0693
0.000166714
34.0692
0.000171482
34.0692
0.000176314
34.0692
0.000181294
34.0692
0.000186583
34.0692
0.000191874
34.0691
0.000197406
34.0691
0.000203107
34.0691
0.000208983
34.0691
0.00021504
34.0691
0.000221284
34.069
0.000227799
34.069
0.000234436
34.069
0.00024128
34.069
0.000248416
34.069
0.000255696
34.0689
0.000263282
34.0689
0.000271027
34.0689
0.000279172
34.0689
0.000287415
34.0688
0.000295997
34.0688
0.000304926
34.0688
0.000313979
34.0687
0.000323476
34.0687
0.000333271
34.0687
0.000343296
34.0687
0.000353638
34.0686
0.000364464
34.0686
0.000375473
34.0686
0.000386909
34.0685
0.000398705
34.0685
0.000410951
34.0685
0.000423502
34.0684
0.000436447
34.0684
0.000449878
34.0683
0.000463726
34.0683
0.000478006
34.0683
0.00049273
34.0682
0.00050791
34.0682
0.000523558
34.0681
0.000539767
34.0681
0.000556392
34.068
0.00057368
34.068
0.000591334
34.0679
0.000609598
34.0679
0.000628487
34.0678
0.000647935
34.0678
0.000667878
34.0677
0.000688482
34.0677
0.000709682
34.0676
0.00073149
34.0675
0.000753996
34.0675
0.000777132
34.0674
0.000800831
34.0674
0.000825335
34.0673
0.000850422
34.0672
0.000876176
34.0671
0.00090276
34.0671
0.00092987
34.067
0.000957822
34.0669
0.000986387
34.0669
0.0010158
34.0668
0.00104575
34.0667
0.00107648
34.0666
0.00110797
34.0665
0.00114023
34.0664
0.00117302
34.0664
0.00120663
34.0663
0.00124083
34.0662
0.00127585
34.0661
0.00131142
34.066
0.00134768
34.0659
0.00138455
34.0658
0.00142207
34.0657
0.00146007
34.0656
0.00149874
34.0655
0.00153783
34.0654
0.00157744
34.0653
0.00161748
34.0652
0.00165797
34.0651
0.00169879
34.0649
0.00173997
34.0648
0.00178138
34.0647
0.00182296
34.0646
0.00186475
34.0645
0.00190659
34.0644
0.0019485
34.0643
0.00199034
34.0641
0.00203211
34.064
0.00207374
34.0639
0.00211501
34.0638
0.00215606
34.0637
0.0021966
34.0636
0.00223676
34.0634
0.00227633
34.0633
0.0023152
34.0632
0.00235346
34.0631
0.00239088
34.063
0.00242736
34.0628
0.00246292
34.0627
0.00249746
34.0626
0.00253084
34.0625
0.00256314
34.0624
0.00259405
34.0623
0.00262382
34.0622
0.00265201
34.0621
0.00267885
34.062
0.00270431
34.0618
0.0027281
34.0617
0.00275042
34.0616
0.00277108
34.0615
0.00279013
34.0614
0.00280765
34.0613
0.00282338
34.0612
0.00283764
34.0612
0.00285014
34.0611
0.00286113
34.061
0.00287066
34.0609
0.00287852
34.0608
0.00288503
34.0607
0.00289017
34.0606
0.00289412
34.0606
0.00289673
34.0605
0.00289853
34.0604
0.00289925
34.0603
0.00289921
34.0602
0.00289872
34.0602
0.00289776
34.0601
0.00289668
34.06
0.00289565
34.06
0.002895
34.0599
0.00289486
34.0598
0.00289577
34.0598
0.00289784
34.0597
0.00290161
34.0596
0.00290755
34.0596
0.00291582
34.0595
0.0029273
34.0595
0.00294229
34.0594
0.00296134
34.0593
0.00298549
34.0593
0.00301523
34.0592
0.00305217
34.0591
0.00309729
34.059
0.0031629
0.0032571
32.4219
3.76475e-05
-32.4219
32.4219
3.86276e-05
32.4219
3.95555e-05
32.4219
4.06654e-05
32.4219
4.1646e-05
32.4219
4.28097e-05
32.4219
4.38459e-05
32.4219
4.49892e-05
32.4219
4.62402e-05
32.4219
4.73667e-05
32.4219
4.86028e-05
32.4219
4.99498e-05
32.4219
5.12529e-05
32.4219
5.25132e-05
32.4219
5.39654e-05
32.4219
5.5377e-05
32.4219
5.69049e-05
32.4219
5.8317e-05
32.4219
5.99257e-05
32.4219
6.15767e-05
32.4219
6.31158e-05
32.4219
6.48557e-05
32.4219
6.65643e-05
32.4219
6.83988e-05
32.4219
7.0283e-05
32.4219
7.20629e-05
32.4219
7.41292e-05
32.4219
7.60947e-05
32.4219
7.81166e-05
32.4219
8.03527e-05
32.4219
8.24935e-05
32.4219
8.46966e-05
32.4219
8.71199e-05
32.4219
8.94542e-05
32.4219
9.2013e-05
32.4219
9.44873e-05
32.4219
9.71131e-05
32.4219
9.98928e-05
32.4219
0.000102596
32.4219
0.000105457
32.4219
0.000108481
32.4219
0.000111514
32.4219
0.000114637
32.4219
0.000117931
32.4219
0.000121244
32.4219
0.000124656
32.4219
0.000128249
32.4219
0.000131948
32.4219
0.00013568
32.4219
0.000139604
32.4219
0.000143645
32.4219
0.000147731
32.4219
0.000152099
32.4219
0.000156443
32.4219
0.000161077
32.4219
0.000165695
32.4219
0.000170614
32.4219
0.000175605
32.4219
0.000180829
32.4219
0.000186136
32.4219
0.000191686
32.4219
0.000197331
32.4219
0.000203231
32.4218
0.000209315
32.4218
0.000215512
32.4218
0.000222061
32.4218
0.000228736
32.4218
0.000235622
32.4218
0.000242726
32.4218
0.000250133
32.4218
0.000257695
32.4218
0.000265576
32.4218
0.000273629
32.4218
0.000282095
32.4217
0.000290671
32.4217
0.000299678
32.4217
0.000308814
32.4217
0.000318478
32.4217
0.000328211
32.4217
0.000338413
32.4217
0.000348939
32.4216
0.000359798
32.4216
0.000371003
32.4216
0.000382562
32.4216
0.000394489
32.4216
0.000406871
32.4216
0.000419643
32.4215
0.000432738
32.4215
0.000446325
32.4215
0.000460415
32.4215
0.000474865
32.4214
0.000489766
32.4214
0.000505208
32.4214
0.000521125
32.4213
0.000537532
32.4213
0.00055444
32.4213
0.000571863
32.4213
0.000589968
32.4212
0.000608459
32.4212
0.000627581
32.4211
0.000647347
32.4211
0.000667613
32.4211
0.000688547
32.421
0.000710085
32.421
0.000732314
32.4209
0.000755013
32.4209
0.000778582
32.4208
0.000802719
32.4208
0.000827512
32.4207
0.00085297
32.4207
0.000879256
32.4206
0.000906144
32.4206
0.000933717
32.4205
0.000962058
32.4204
0.000991094
32.4204
0.00102083
32.4203
0.00105133
32.4203
0.00108261
32.4202
0.00111443
32.4201
0.00114718
32.42
0.00118045
32.42
0.00121455
32.4199
0.00124932
32.4198
0.00128482
32.4197
0.00132088
32.4196
0.00135764
32.4196
0.00139499
32.4195
0.00143308
32.4194
0.00147156
32.4193
0.00151079
32.4192
0.00155044
32.4191
0.00159062
32.419
0.00163121
32.4189
0.00167218
32.4188
0.00171363
32.4187
0.00175536
32.4186
0.00179733
32.4185
0.00183954
32.4184
0.00188187
32.4183
0.00192434
32.4182
0.00196688
32.4181
0.00200934
32.418
0.00205166
32.4179
0.002094
32.4178
0.0021359
32.4177
0.00217759
32.4176
0.00221884
32.4175
0.00225965
32.4174
0.00230002
32.4173
0.00233955
32.4172
0.00237856
32.4171
0.00241672
32.417
0.00245404
32.4169
0.00249044
32.4168
0.00252577
32.4167
0.00256002
32.4166
0.0025932
32.4165
0.00262508
32.4164
0.0026556
32.4163
0.00268494
32.4162
0.0027127
32.4162
0.00273917
32.4161
0.00276398
32.416
0.00278731
32.4159
0.00280899
32.4158
0.0028292
32.4158
0.00284771
32.4157
0.00286466
32.4156
0.0028798
32.4155
0.00289345
32.4155
0.00290548
32.4154
0.0029159
32.4153
0.00292483
32.4153
0.00293216
32.4152
0.00293803
32.4152
0.00294274
32.4151
0.00294598
32.4151
0.00294809
32.415
0.00294916
32.4149
0.00294919
32.4149
0.00294861
32.4148
0.00294727
32.4148
0.00294551
32.4148
0.00294344
32.4147
0.00294143
32.4147
0.00293957
32.4146
0.0029382
32.4146
0.00293752
32.4145
0.00293801
32.4145
0.00293986
32.4145
0.00294361
32.4144
0.00294952
32.4144
0.00295821
32.4143
0.00297004
32.4143
0.00298583
32.4142
0.00300592
32.4142
0.00303135
32.4141
0.00306281
32.4141
0.00310136
32.414
0.00314752
32.414
0.00319551
0.00322919
30.8568
4.10403e-05
-30.8568
30.8568
4.2016e-05
30.8568
4.31757e-05
30.8568
4.4286e-05
30.8568
4.5347e-05
30.8568
4.65933e-05
30.8568
4.77924e-05
30.8568
4.91009e-05
30.8568
5.02862e-05
30.8568
5.16607e-05
30.8568
5.2992e-05
30.8568
5.44367e-05
30.8568
5.57627e-05
30.8568
5.72822e-05
30.8568
5.88408e-05
30.8568
6.03621e-05
30.8568
6.1925e-05
30.8568
6.36087e-05
30.8567
6.53369e-05
30.8567
6.70331e-05
30.8567
6.88544e-05
30.8567
7.07245e-05
30.8567
7.25673e-05
30.8567
7.454e-05
30.8567
7.65664e-05
30.8567
7.85706e-05
30.8567
8.07878e-05
30.8567
8.29864e-05
30.8567
8.51685e-05
30.8567
8.75695e-05
30.8567
8.98802e-05
30.8567
9.24141e-05
30.8567
9.494e-05
30.8566
9.75381e-05
30.8566
0.000100289
30.8566
0.000103038
30.8566
0.000105868
30.8566
0.000108858
30.8566
0.000111855
30.8566
0.000115018
30.8566
0.000118272
30.8566
0.000121543
30.8566
0.000124989
30.8566
0.000128536
30.8565
0.000132187
30.8565
0.000135947
30.8565
0.000139817
30.8565
0.000143804
30.8565
0.000147987
30.8565
0.000152217
30.8565
0.000156574
30.8565
0.000161064
30.8564
0.000165847
30.8564
0.000170537
30.8564
0.000175608
30.8564
0.000180675
30.8564
0.000186055
30.8564
0.000191441
30.8564
0.000197074
30.8563
0.000202958
30.8563
0.000208945
30.8563
0.000215195
30.8563
0.000221561
30.8563
0.000228126
30.8562
0.000235053
30.8562
0.000242038
30.8562
0.000249321
30.8562
0.000256833
30.8562
0.000264658
30.8561
0.00027265
30.8561
0.000280973
30.8561
0.000289478
30.8561
0.000298331
30.856
0.000307463
30.856
0.000316806
30.856
0.000326679
30.856
0.000336627
30.8559
0.000347047
30.8559
0.000357796
30.8559
0.000368805
30.8558
0.00038032
30.8558
0.000392117
30.8558
0.000404285
30.8557
0.000416837
30.8557
0.000429939
30.8557
0.000443292
30.8556
0.000457221
30.8556
0.000471425
30.8555
0.000486306
30.8555
0.000501489
30.8555
0.000517141
30.8554
0.000533431
30.8554
0.000550217
30.8553
0.000567433
30.8553
0.000585248
30.8552
0.000603599
30.8552
0.000622496
30.8551
0.000642033
30.8551
0.000662142
30.855
0.000682838
30.855
0.000704131
30.8549
0.000726113
30.8548
0.000748716
30.8548
0.000771953
30.8547
0.000795834
30.8547
0.000820524
30.8546
0.000845722
30.8545
0.000871825
30.8544
0.000898375
30.8544
0.000925923
30.8543
0.00095393
30.8542
0.000982868
30.8541
0.00101235
30.8541
0.00104277
30.854
0.00107374
30.8539
0.00110549
30.8538
0.00113809
30.8537
0.00117123
30.8536
0.0012053
30.8535
0.00123988
30.8534
0.00127522
30.8533
0.00131137
30.8532
0.00134808
30.8531
0.00138548
30.853
0.00142349
30.8529
0.00146216
30.8528
0.00150145
30.8527
0.00154118
30.8526
0.00158156
30.8525
0.00162231
30.8524
0.0016637
30.8523
0.00170531
30.8522
0.0017474
30.852
0.00178985
30.8519
0.00183244
30.8518
0.00187535
30.8517
0.00191837
30.8516
0.00196153
30.8514
0.00200474
30.8513
0.00204779
30.8512
0.00209093
30.8511
0.00213384
30.8509
0.00217646
30.8508
0.00221878
30.8507
0.00226081
30.8506
0.00230223
30.8504
0.00234319
30.8503
0.00238347
30.8502
0.00242313
30.8501
0.00246194
30.85
0.00249998
30.8498
0.00253694
30.8497
0.00257304
30.8496
0.00260797
30.8495
0.00264168
30.8494
0.00267431
30.8493
0.00270565
30.8491
0.00273548
30.849
0.00276405
30.8489
0.00279107
30.8488
0.00281665
30.8487
0.00284067
30.8486
0.00286309
30.8485
0.00288396
30.8484
0.00290309
30.8483
0.00292064
30.8483
0.0029365
30.8482
0.00295076
30.8481
0.00296335
30.848
0.00297436
30.8479
0.00298375
30.8478
0.00299153
30.8478
0.00299792
30.8477
0.00300274
30.8476
0.00300629
30.8476
0.00300842
30.8475
0.00300952
30.8474
0.00300939
30.8474
0.0030083
30.8473
0.00300638
30.8473
0.00300386
30.8472
0.00300066
30.8472
0.00299728
30.8471
0.0029936
30.8471
0.00299016
30.847
0.00298695
30.847
0.00298432
30.8469
0.00298272
30.8469
0.00298215
30.8468
0.0029832
30.8468
0.00298626
30.8468
0.00299175
30.8467
0.00299999
30.8467
0.00301175
30.8466
0.00302738
30.8466
0.00304787
30.8465
0.0030737
30.8465
0.00310581
30.8465
0.00314576
30.8464
0.00319404
30.8463
0.00326239
0.00335957
29.3651
4.12732e-05
-29.3651
29.3651
4.24183e-05
29.3651
4.35143e-05
29.3651
4.46399e-05
29.3651
4.58733e-05
29.3651
4.70598e-05
29.3651
4.82783e-05
29.3651
4.96078e-05
29.3651
5.08936e-05
29.3651
5.22925e-05
29.3651
5.36499e-05
29.3651
5.51228e-05
29.3651
5.65565e-05
29.3651
5.81082e-05
29.3651
5.97013e-05
29.3651
6.12593e-05
29.3651
6.29392e-05
29.3651
6.46648e-05
29.3651
6.64375e-05
29.3651
6.8181e-05
29.3651
7.01306e-05
29.3651
7.19765e-05
29.3651
7.39539e-05
29.3651
7.60648e-05
29.365
7.81553e-05
29.365
8.02273e-05
29.365
8.25164e-05
29.365
8.48691e-05
29.365
8.71317e-05
29.365
8.96179e-05
29.365
9.21744e-05
29.365
9.47257e-05
29.365
9.73521e-05
29.365
0.000100134
29.365
0.000102997
29.365
0.000105943
29.365
0.000108897
29.365
0.000112096
29.365
0.000115231
29.365
0.000118618
29.365
0.000121948
29.365
0.000125535
29.365
0.000129151
29.365
0.000132877
29.365
0.000136793
29.365
0.00014075
29.365
0.000144905
29.365
0.000149187
29.365
0.000153521
29.365
0.000158068
29.365
0.000162755
29.365
0.000167664
29.3649
0.000172567
29.3649
0.00017778
29.3649
0.000183077
29.3649
0.000188617
29.3649
0.000194251
29.3649
0.000200141
29.3649
0.000206138
29.3649
0.000212481
29.3649
0.000218944
29.3649
0.000225611
29.3649
0.000232489
29.3648
0.000239586
29.3648
0.000247066
29.3648
0.000254623
29.3648
0.000262423
29.3648
0.00027063
29.3648
0.000279017
29.3648
0.000287673
29.3647
0.000296683
29.3647
0.000305902
29.3647
0.000315495
29.3647
0.000325393
29.3647
0.000335607
29.3647
0.000346226
29.3646
0.000357103
29.3646
0.000368329
29.3646
0.00037999
29.3646
0.0003921
29.3645
0.000404437
29.3645
0.000417322
29.3645
0.000430613
29.3645
0.000444244
29.3644
0.000458384
29.3644
0.000473044
29.3644
0.000488083
29.3643
0.000503668
29.3643
0.000519735
29.3643
0.000536297
29.3642
0.000553445
29.3642
0.000571037
29.3642
0.000589241
29.3641
0.000608072
29.3641
0.000627385
29.364
0.000647351
29.364
0.000667904
29.3639
0.000689057
29.3639
0.000710977
29.3638
0.000733367
29.3638
0.000756469
29.3637
0.000780297
29.3637
0.000804782
29.3636
0.000830013
29.3636
0.000855843
29.3635
0.000882436
29.3634
0.0009098
29.3634
0.000937785
29.3633
0.000966631
29.3632
0.000996108
29.3632
0.00102638
29.3631
0.00105743
29.363
0.00108913
29.3629
0.00112169
29.3629
0.00115496
29.3628
0.00118886
29.3627
0.0012236
29.3626
0.00125912
29.3625
0.00129522
29.3624
0.00133207
29.3623
0.00136963
29.3622
0.00140782
29.3621
0.00144669
29.362
0.00148613
29.3619
0.0015262
29.3618
0.00156678
29.3617
0.00160792
29.3616
0.00164959
29.3615
0.00169174
29.3614
0.00173417
29.3613
0.00177707
29.3611
0.00182023
29.361
0.00186368
29.3609
0.00190735
29.3608
0.00195113
29.3607
0.001995
29.3606
0.00203892
29.3604
0.00208282
29.3603
0.00212654
29.3602
0.00217017
29.3601
0.00221347
29.3599
0.00225646
29.3598
0.00229904
29.3597
0.00234107
29.3596
0.00238269
29.3595
0.00242351
29.3593
0.00246362
29.3592
0.00250308
29.3591
0.0025415
29.359
0.00257905
29.3589
0.00261547
29.3588
0.00265094
29.3586
0.00268515
29.3585
0.00271803
29.3584
0.00274975
29.3583
0.00278008
29.3582
0.00280898
29.3581
0.0028363
29.358
0.00286224
29.3579
0.00288659
29.3578
0.00290932
29.3577
0.00293048
29.3576
0.00294988
29.3576
0.00296775
29.3575
0.00298383
29.3574
0.00299843
29.3573
0.00301118
29.3573
0.00302239
29.3572
0.00303193
29.3571
0.0030399
29.3571
0.00304635
29.357
0.00305132
29.3569
0.00305479
29.3569
0.00305699
29.3568
0.00305775
29.3568
0.00305747
29.3567
0.00305603
29.3567
0.0030536
29.3567
0.00305031
29.3566
0.00304646
29.3566
0.0030418
29.3565
0.00303697
29.3565
0.00303191
29.3565
0.00302675
29.3564
0.00302187
29.3564
0.0030175
29.3564
0.00301382
29.3564
0.0030113
29.3563
0.00300992
29.3563
0.00301053
29.3563
0.00301302
29.3562
0.00301823
29.3562
0.00302641
29.3562
0.00303816
29.3562
0.00305409
29.3561
0.00307497
29.3561
0.00310141
29.3561
0.0031346
29.3561
0.00317524
29.356
0.00322464
29.356
0.00327749
0.00331874
27.9472
4.4491e-05
-27.9472
27.9472
4.57119e-05
27.9472
4.68869e-05
27.9472
4.81718e-05
27.9472
4.94114e-05
27.9472
5.06846e-05
27.9472
5.21483e-05
27.9472
5.34144e-05
27.9472
5.4951e-05
27.9472
5.63702e-05
27.9472
5.79068e-05
27.9472
5.94063e-05
27.9472
6.11037e-05
27.9472
6.26889e-05
27.9472
6.43969e-05
27.9472
6.61513e-05
27.9472
6.79538e-05
27.9472
6.98058e-05
27.9471
7.17091e-05
27.9471
7.36654e-05
27.9471
7.57542e-05
27.9471
7.78219e-05
27.9471
7.98701e-05
27.9471
8.22124e-05
27.9471
8.44616e-05
27.9471
8.67755e-05
27.9471
8.9234e-05
27.9471
9.1684e-05
27.9471
9.42833e-05
27.9471
9.69567e-05
27.9471
9.96288e-05
27.9471
0.000102458
27.9471
0.000105447
27.947
0.000108365
27.947
0.000111449
27.947
0.000114701
27.947
0.000117892
27.947
0.000121336
27.947
0.000124881
27.947
0.000128452
27.947
0.00013213
27.947
0.000135999
27.947
0.000139983
27.9469
0.000144009
27.9469
0.000148315
27.9469
0.000152593
27.9469
0.00015716
27.9469
0.000161787
27.9469
0.000166556
27.9469
0.000171473
27.9469
0.000176621
27.9468
0.000181926
27.9468
0.000187318
27.9468
0.000193034
27.9468
0.000198771
27.9468
0.000204767
27.9468
0.000211029
27.9468
0.000217408
27.9467
0.000223989
27.9467
0.000230856
27.9467
0.000237939
27.9467
0.000245245
27.9467
0.000252783
27.9466
0.00026056
27.9466
0.000268585
27.9466
0.000276943
27.9466
0.000285489
27.9465
0.000294386
27.9465
0.000303645
27.9465
0.00031304
27.9465
0.000322894
27.9464
0.000332982
27.9464
0.000343472
27.9464
0.000354295
27.9464
0.000365462
27.9463
0.000377063
27.9463
0.000388876
27.9463
0.0004013
27.9462
0.00041396
27.9462
0.000427178
27.9462
0.000440733
27.9461
0.000454716
27.9461
0.000469295
27.946
0.000484171
27.946
0.00049967
27.946
0.00051557
27.9459
0.000532042
27.9459
0.000549019
27.9458
0.000566517
27.9458
0.000584704
27.9457
0.000603282
27.9457
0.000622498
27.9456
0.000642366
27.9456
0.000662743
27.9455
0.000683877
27.9454
0.000705545
27.9454
0.000727917
27.9453
0.000750927
27.9453
0.000774664
27.9452
0.000798983
27.9451
0.00082413
27.9451
0.000849881
27.945
0.000876399
27.9449
0.000903695
27.9448
0.000931619
27.9448
0.000960333
27.9447
0.000989843
27.9446
0.00102008
27.9445
0.00105103
27.9444
0.00108279
27.9443
0.00111535
27.9442
0.00114864
27.9442
0.00118257
27.9441
0.00121744
27.944
0.00125294
27.9439
0.0012892
27.9438
0.00132615
27.9436
0.00136385
27.9435
0.00140226
27.9434
0.00144123
27.9433
0.00148103
27.9432
0.00152125
27.9431
0.00156226
27.943
0.00160369
27.9429
0.00164569
27.9427
0.0016882
27.9426
0.00173118
27.9425
0.00177451
27.9424
0.00181823
27.9422
0.00186227
27.9421
0.0019065
27.942
0.00195095
27.9418
0.00199554
27.9417
0.00204023
27.9416
0.00208493
27.9414
0.0021295
27.9413
0.00217402
27.9412
0.00221827
27.941
0.00226225
27.9409
0.00230587
27.9408
0.00234913
27.9406
0.00239172
27.9405
0.0024338
27.9404
0.00247528
27.9402
0.00251592
27.9401
0.00255571
27.94
0.00259459
27.9398
0.00263255
27.9397
0.00266943
27.9396
0.00270508
27.9395
0.00273959
27.9393
0.00277288
27.9392
0.00280482
27.9391
0.00283526
27.939
0.00286438
27.9389
0.00289189
27.9388
0.00291798
27.9387
0.00294237
27.9385
0.00296519
27.9384
0.0029864
27.9384
0.00300591
27.9383
0.00302368
27.9382
0.00303988
27.9381
0.00305433
27.938
0.00306713
27.9379
0.0030782
27.9378
0.00308772
27.9378
0.00309555
27.9377
0.00310181
27.9376
0.00310655
27.9376
0.00310973
27.9375
0.00311164
27.9375
0.00311219
27.9374
0.00311132
27.9373
0.0031094
27.9373
0.00310639
27.9373
0.0031023
27.9372
0.0030975
27.9372
0.00309194
27.9371
0.00308585
27.9371
0.00307923
27.9371
0.0030724
27.937
0.00306561
27.937
0.00305884
27.937
0.00305253
27.9369
0.00304678
27.9369
0.00304199
27.9369
0.00303838
27.9368
0.00303619
27.9368
0.00303585
27.9368
0.0030379
27.9368
0.00304245
27.9367
0.00305039
27.9367
0.00306186
27.9367
0.00307778
27.9367
0.00309876
27.9367
0.00312544
27.9366
0.00315894
27.9366
0.00320031
27.9366
0.00325012
27.9365
0.00331799
0.00341057
26.5965
4.59934e-05
-26.5965
26.5965
4.71811e-05
26.5965
4.84795e-05
26.5965
4.97341e-05
26.5965
5.11791e-05
26.5965
5.24265e-05
26.5965
5.39445e-05
26.5965
5.53453e-05
26.5965
5.68636e-05
26.5965
5.85007e-05
26.5965
5.99467e-05
26.5965
6.16699e-05
26.5965
6.33606e-05
26.5965
6.5098e-05
26.5965
6.68838e-05
26.5965
6.87974e-05
26.5965
7.0607e-05
26.5965
7.26258e-05
26.5965
7.46221e-05
26.5965
7.66755e-05
26.5965
7.8866e-05
26.5965
8.10398e-05
26.5965
8.33548e-05
26.5965
8.57353e-05
26.5965
8.81058e-05
26.5965
9.06243e-05
26.5965
9.32154e-05
26.5965
9.58038e-05
26.5965
9.86257e-05
26.5965
0.00010145
26.5965
0.000104358
26.5964
0.000107275
26.5964
0.000110514
26.5964
0.000113612
26.5964
0.000116962
26.5964
0.000120411
26.5964
0.000123885
26.5964
0.000127465
26.5964
0.000131312
26.5964
0.000135116
26.5964
0.000139195
26.5964
0.00014324
26.5964
0.000147568
26.5964
0.000151872
26.5964
0.000156545
26.5964
0.000161125
26.5963
0.000166008
26.5963
0.000171041
26.5963
0.000176231
26.5963
0.000181583
26.5963
0.000187026
26.5963
0.000192798
26.5963
0.000198672
26.5963
0.000204812
26.5963
0.000211066
26.5962
0.000217599
26.5962
0.000224261
26.5962
0.000231293
26.5962
0.000238469
26.5962
0.000245876
26.5962
0.00025352
26.5962
0.000261489
26.5961
0.000269712
26.5961
0.000278122
26.5961
0.000286959
26.5961
0.000296002
26.5961
0.000305413
26.596
0.000315049
26.596
0.000324997
26.596
0.000335422
26.596
0.000346103
26.596
0.000357205
26.5959
0.000368585
26.5959
0.00038041
26.5959
0.000392535
26.5958
0.000405284
26.5958
0.000418203
26.5958
0.000431693
26.5958
0.000445688
26.5957
0.000459969
26.5957
0.00047486
26.5957
0.00049014
26.5956
0.000506057
26.5956
0.000522391
26.5955
0.000539233
26.5955
0.000556675
26.5955
0.000574654
26.5954
0.000593181
26.5954
0.000612429
26.5953
0.000632098
26.5953
0.000652436
26.5952
0.000673456
26.5952
0.000695095
26.5951
0.000717443
26.5951
0.000740356
26.595
0.000764004
26.5949
0.000788319
26.5949
0.000813392
26.5948