/*--------------------------------*- C++ -*----------------------------------*\
  =========                 |
  \\      /  F ield         | OpenFOAM: The Open Source CFD Toolbox
   \\    /   O peration     | Website:  https://openfoam.org
    \\  /    A nd           | Version:  7
     \\/     M anipulation  |
\*---------------------------------------------------------------------------*/
FoamFile
{
    version     2.0;
    format      ascii;
    class       volVectorField;
    location    "1";
    object      wallShearStress;
}
// * * * * * * * * * * * * * * * * * * * * * * * * * * * * * * * * * * * * * //

dimensions      [0 2 -2 0 0 0 0];

internalField   uniform (0 0 0);

boundaryField
{
    frontAndBack
    {
        type            empty;
    }
    farfield
    {
        type            calculated;
        value           uniform (0 0 0);
    }
    airfoil
    {
        type            calculated;
        value           nonuniform List<vector> 
341
(
(-16.6921 -0.407333 4.37239e-23)
(-19.6241 -0.495596 1.17954e-22)
(-18.698 -0.320798 3.27561e-18)
(-17.8703 -0.183912 -1.05794e-37)
(-17.5346 -0.132009 4.37301e-22)
(-17.5757 -0.0839458 -4.14461e-22)
(-17.5154 -0.0304898 -2.0657e-19)
(-17.408 0.0336827 -8.43084e-19)
(-17.1557 0.0943788 -1.75143e-18)
(-16.9712 0.145872 6.63821e-24)
(-16.8334 0.194402 1.70265e-18)
(-16.6798 0.23891 1.67897e-18)
(-16.5531 0.281361 -1.65846e-18)
(-16.4393 0.323597 -1.64246e-21)
(-16.2917 0.363526 8.16507e-22)
(-16.1362 0.400104 -7.95705e-22)
(-16.0143 0.435495 -3.24005e-18)
(-15.897 0.468129 7.77246e-22)
(-15.7924 0.499693 3.20418e-18)
(-15.6701 0.531461 -2.46854e-37)
(-15.5402 0.560731 2.34523e-34)
(-15.421 0.588361 3.12085e-18)
(-15.3052 0.613724 3.08387e-18)
(-15.2077 0.638219 -1.48038e-21)
(-15.1193 0.663331 1.50268e-21)
(-15.0093 0.68745 -6.05272e-18)
(-14.8879 0.708729 -1.35341e-21)
(-14.7834 0.729583 5.91901e-18)
(-14.6859 0.748937 -1.41969e-21)
(-14.6054 0.767975 1.42633e-21)
(-14.5199 0.787268 -1.40163e-21)
(-14.4121 0.805026 1.1441e-17)
(-14.3033 0.821275 1.50386e-21)
(-14.2058 0.836966 -1.3771e-21)
(-14.1168 0.851791 5.54027e-18)
(-14.0358 0.865732 1.215e-21)
(-13.962 0.880739 -1.03444e-36)
(-13.8698 0.894965 -5.38522e-18)
(-13.7728 0.90742 1.06521e-17)
(-13.686 0.919698 1.45682e-22)
(-13.6039 0.930944 -1.86843e-34)
(-13.5301 0.94173 -1.25157e-21)
(-13.4686 0.953271 5.10164e-18)
(-13.3935 0.965043 1.2399e-21)
(-13.3068 0.9748 -4.9856e-18)
(-13.2261 0.984286 1.03444e-36)
(-13.1501 0.99307 3.44383e-40)
(-13.082 1.00164 1.17025e-21)
(-13.0229 1.01014 4.78115e-18)
(-12.9644 1.01969 1.15347e-21)
(-12.8912 1.02807 -4.63472e-18)
(-12.815 1.03532 -9.1726e-18)
(-12.7449 1.04251 2.215e-21)
(-12.6809 1.04951 -1.10591e-21)
(-12.6202 1.05599 -5.16575e-41)
(-12.5699 1.06328 -8.98422e-22)
(-12.511 1.07105 1.94116e-23)
(-12.4389 1.07682 1.04113e-21)
(-12.3725 1.0827 4.17403e-18)
(-12.3107 1.08828 8.25101e-18)
(-12.2545 1.0937 -4.07916e-18)
(-12.2035 1.09893 9.94706e-22)
(-12.1585 1.10501 -7.83577e-18)
(-12.1002 1.11079 -1.08888e-21)
(-12.0321 1.11488 9.35975e-22)
(-11.9689 1.11915 3.74257e-18)
(-11.9088 1.1231 -3.29138e-37)
(-11.8518 1.1268 -1.04856e-21)
(-11.8012 1.13067 3.60017e-18)
(-11.7528 1.13536 -8.32549e-22)
(-11.6919 1.13935 3.39038e-18)
(-11.6273 1.14237 3.33791e-18)
(-11.5673 1.1455 -8.1251e-22)
(-11.5112 1.14848 -7.78854e-22)
(-11.4582 1.15124 -3.18108e-18)
(-11.413 1.15446 -3.12137e-18)
(-11.3669 1.15852 -5.91795e-18)
(-11.3096 1.1616 8.46356e-37)
(-11.2507 1.16406 -1.22251e-36)
(-11.1933 1.16627 5.57863e-18)
(-11.137 1.16812 2.73231e-18)
(-11.0824 1.16965 2.67523e-18)
(-11.0338 1.17162 2.58167e-18)
(-10.9801 1.17417 9.87415e-36)
(-10.9148 1.17529 -2.37555e-18)
(-10.8502 1.17616 1.12847e-36)
(-10.7886 1.17696 2.24692e-18)
(-10.7298 1.17764 -5.44067e-22)
(-10.6743 1.17826 2.11403e-18)
(-10.6234 1.1796 7.30141e-22)
(-10.5633 1.18103 3.72888e-18)
(-10.4947 1.18101 1.2208e-23)
(-10.4298 1.18104 1.71484e-18)
(-10.3686 1.18098 -1.17549e-38)
(-10.3106 1.18079 1.55766e-18)
(-10.2576 1.18079 7.6031e-35)
(-10.2006 1.1814 1.52566e-22)
(-10.1269 1.18047 -1.21663e-18)
(-10.0507 1.17869 2.93874e-39)
(-9.97736 1.17676 -1.03274e-18)
(-9.90619 1.17448 -1.21252e-22)
(-9.83959 1.17222 1.17549e-37)
(-9.77688 1.17084 -6.93453e-19)
(-9.70039 1.16898 -6.32337e-23)
(-9.61483 1.16547 9.34628e-19)
(-9.53287 1.162 3.53692e-19)
(-9.45367 1.15829 2.10492e-23)
(-9.37788 1.15448 1.13015e-19)
(-9.30468 1.1514 9.81324e-24)
(-9.2164 1.14783 -9.74579e-24)
(-9.11629 1.14206 6.09656e-36)
(-9.02297 1.13657 2.35099e-38)
(-8.93112 1.13043 1.16153e-18)
(-8.84842 1.1248 1.80059e-22)
(-8.76157 1.11998 -9.1234e-23)
(-8.65198 1.11297 -9.8977e-19)
(-8.53843 1.10452 1.17345e-18)
(-8.43199 1.09616 -1.76671e-22)
(-8.33006 1.08741 -1.57068e-18)
(-8.23211 1.07981 1.61929e-18)
(-8.10882 1.07044 -7.87591e-23)
(-7.9742 1.05858 -2.03811e-18)
(-7.84669 1.04672 2.29358e-18)
(-7.72579 1.03468 2.53885e-18)
(-7.5993 1.02362 1.45174e-22)
(-7.43306 1.00769 -2.78002e-18)
(-7.27641 0.991749 1.84296e-22)
(-7.11319 0.973319 -3.49048e-18)
(-6.9759 0.959825 6.58985e-18)
(-6.73484 0.932942 3.67794e-18)
(-6.58884 0.91749 -2.48749e-22)
(-6.29045 0.878752 -8.47624e-18)
(-6.24365 0.878386 1.36676e-22)
(-5.64701 0.798165 -3.13938e-22)
(-5.88205 0.835175 1.46967e-22)
(-4.64293 0.664685 -7.17465e-43)
(-5.70676 0.815497 1.72198e-22)
(-1.76967 0.744109 6.18115e-18)
(-21.0823 -71.5618 1.40878e-16)
(-58.4957 -68.1578 1.41614e-16)
(-48.8749 -35.9057 -2.22932e-17)
(-37.0375 -20.2575 -2.93432e-17)
(-30.2774 -13.4089 -2.83047e-17)
(-26.2488 -9.81612 2.51736e-22)
(-24.4096 -7.88736 5.11983e-39)
(-23.835 -6.79195 -6.77085e-36)
(-23.2627 -5.89278 4.88724e-17)
(-23.4017 -5.33766 -1.36169e-34)
(-23.2753 -4.8042 8.35824e-34)
(-23.3862 -4.38655 -2.615e-17)
(-23.5093 -4.02296 -2.82624e-17)
(-23.6116 -3.70094 -8.47398e-22)
(-23.662 -3.39659 2.7523e-17)
(-23.5371 -3.09726 -8.89287e-22)
(-23.3523 -2.82695 5.71705e-17)
(-22.9991 -2.55189 2.80873e-17)
(-22.6422 -2.30341 -9.03209e-22)
(-22.2437 -2.07687 1.4603e-17)
(-21.853 -1.86669 1.43267e-17)
(-21.4805 -1.67469 -1.45312e-17)
(-21.0998 -1.49794 9.07056e-22)
(-20.7866 -1.34159 -4.43547e-22)
(-20.434 -1.1921 -1.43875e-17)
(-20.1721 -1.04203 7.12437e-18)
(-19.449 -0.862766 -1.3385e-17)
(-19.2525 -0.772745 1.80371e-23)
(-19.1497 -0.726833 6.62038e-35)
(-20.1921 -0.67695 6.6215e-18)
(-17.4815 -0.260668 -3.4327e-23)
(-21.0178 71.3404 1.39768e-16)
(-58.1409 67.7198 -2.91089e-16)
(-48.3289 35.4925 -4.87362e-20)
(-36.3639 19.877 5.42131e-17)
(-29.6162 13.112 3.39319e-22)
(-26.3238 9.84281 3.62074e-17)
(-24.7518 8.00649 4.30825e-17)
(-23.8821 6.78974 -4.61825e-17)
(-23.4481 5.95074 -4.94739e-17)
(-23.1421 5.27301 2.11238e-23)
(-23.0673 4.76375 2.69287e-17)
(-23.1083 4.33302 2.61754e-17)
(-23.3299 3.99225 1.74303e-22)
(-23.4729 3.67885 5.56196e-17)
(-23.5983 3.38714 8.39237e-22)
(-23.4983 3.09223 -8.89963e-22)
(-23.355 2.82699 -2.85342e-17)
(-23.0102 2.55341 -2.81298e-17)
(-22.6696 2.30606 9.00009e-22)
(-22.2661 2.07936 -1.46238e-17)
(-21.8812 1.86904 -8.77469e-22)
(-21.5018 1.67677 -8.8356e-22)
(-21.1249 1.49974 -1.47862e-17)
(-20.8071 1.34337 4.43529e-22)
(-20.4553 1.19341 -1.43693e-17)
(-20.1927 1.04351 -4.34551e-22)
(-19.4635 0.863982 6.68542e-18)
(-19.2742 0.774203 6.60075e-18)
(-19.1467 0.726993 7.74034e-18)
(-20.2339 0.676927 6.61457e-18)
(-17.4742 0.263989 1.44262e-22)
(-16.6887 0.411606 0)
(-19.6273 0.49699 0)
(-18.7639 0.332297 0)
(-17.936 0.189776 4.75045e-35)
(-17.5437 0.136434 -1.58241e-37)
(-17.6046 0.0894011 4.21398e-22)
(-17.5217 0.0383388 -4.36605e-24)
(-17.4572 -0.0233941 -4.18676e-22)
(-17.2245 -0.0858146 8.96018e-19)
(-17.0071 -0.136451 -5.72586e-24)
(-16.883 -0.18518 -4.28102e-22)
(-16.7393 -0.22983 9.11008e-38)
(-16.6084 -0.271977 1.7016e-18)
(-16.4887 -0.312673 1.71084e-18)
(-16.363 -0.353631 -1.08992e-34)
(-16.2159 -0.390793 3.36634e-18)
(-16.0809 -0.425682 3.32615e-18)
(-15.9586 -0.458372 -2.82119e-37)
(-15.8629 -0.489932 -3.37723e-34)
(-15.7583 -0.521817 3.68481e-23)
(-15.6233 -0.551098 -2.11589e-37)
(-15.4998 -0.578916 -6.40806e-18)
(-15.3888 -0.605153 3.16929e-18)
(-15.2891 -0.629906 3.13289e-18)
(-15.2001 -0.65365 -3.11882e-18)
(-15.1012 -0.67832 4.23178e-37)
(-14.9829 -0.70046 1.96025e-34)
(-14.8778 -0.721827 -9.94938e-34)
(-14.7806 -0.741882 1.20461e-17)
(-14.6839 -0.760032 -7.3298e-22)
(-14.6114 -0.778883 5.91758e-18)
(-14.5232 -0.797997 5.8876e-18)
(-14.4219 -0.815358 -5.82052e-18)
(-14.3255 -0.831739 -1.30569e-21)
(-14.2313 -0.846625 -4.78348e-38)
(-14.1506 -0.861312 1.14447e-22)
(-14.0796 -0.875383 -8.45174e-40)
(-14.0094 -0.890762 -1.26953e-36)
(-13.9194 -0.90455 -5.48951e-18)
(-13.8258 -0.916768 5.43023e-18)
(-13.7427 -0.928793 5.37766e-18)
(-13.6666 -0.940126 5.32457e-18)
(-13.597 -0.950819 -2.00316e-23)
(-13.5397 -0.962459 -1.28087e-21)
(-13.4661 -0.97409 -5.14486e-18)
(-13.3788 -0.983469 5.09027e-18)
(-13.3018 -0.993076 -5.04024e-18)
(-13.2287 -1.00189 1.22805e-21)
(-13.1618 -1.0103 -4.94087e-18)
(-13.1054 -1.01883 2.3896e-21)
(-13.0479 -1.02801 -1.92545e-23)
(-12.9757 -1.03634 -1.16715e-21)
(-12.9013 -1.04372 -1.13507e-21)
(-12.8321 -1.05089 1.00722e-21)
(-12.7674 -1.05769 -2.36086e-34)
(-12.7079 -1.06425 -4.5473e-18)
(-12.656 -1.07099 2.40271e-34)
(-12.5993 -1.07851 4.37522e-18)
(-12.5291 -1.08461 1.99562e-23)
(-12.4617 -1.09039 -4.27631e-18)
(-12.397 -1.09567 -1.02233e-21)
(-12.3394 -1.10102 -4.17958e-18)
(-12.2853 -1.10598 9.99708e-22)
(-12.2386 -1.11124 -4.05706e-18)
(-12.1881 -1.1175 9.72521e-22)
(-12.1248 -1.12216 3.89327e-18)
(-12.0653 -1.12681 -3.8434e-18)
(-12.0072 -1.13101 3.79434e-18)
(-11.9529 -1.1351 -3.74573e-18)
(-11.8994 -1.13868 -3.70037e-18)
(-11.8518 -1.14266 -1.26953e-36)
(-11.798 -1.14726 -6.93736e-35)
(-11.7323 -1.15029 7.99336e-37)
(-11.6698 -1.1533 3.38619e-18)
(-11.6089 -1.1559 -3.33442e-18)
(-11.553 -1.15858 -3.28311e-18)
(-11.4993 -1.16092 1.57811e-21)
(-11.4516 -1.16378 3.12625e-18)
(-11.3981 -1.16727 -3.00532e-18)
(-11.3329 -1.16916 1.6163e-38)
(-11.2718 -1.17119 -2.89225e-18)
(-11.2116 -1.17275 3.51548e-22)
(-11.1565 -1.17448 9.36653e-35)
(-11.1041 -1.17598 3.26623e-22)
(-11.0566 -1.17797 -3.22942e-22)
(-11.0032 -1.18052 2.48e-18)
(-10.9396 -1.18161 -2.41658e-18)
(-10.8798 -1.18284 -2.81412e-22)
(-10.8216 -1.18378 7.06473e-22)
(-10.767 -1.18474 -1.16529e-23)
(-10.7161 -1.18571 -2.68936e-22)
(-10.6678 -1.18723 -2.01008e-18)
(-10.6073 -1.18846 -2.26204e-22)
(-10.5373 -1.18817 2.29261e-22)
(-10.47 -1.18779 1.88079e-37)
(-10.4046 -1.18712 -1.67452e-18)
(-10.3413 -1.18618 1.59587e-18)
(-10.2842 -1.18555 1.51533e-18)
(-10.2262 -1.18571 -1.26939e-23)
(-10.153 -1.18475 1.25349e-18)
(-10.0763 -1.18282 -7.05297e-38)
(-10.0033 -1.18086 1.23826e-22)
(-9.93307 -1.17866 9.74602e-19)
(-9.86614 -1.1763 1.00102e-22)
(-9.80537 -1.17469 -9.78455e-23)
(-9.73456 -1.1733 -6.42119e-35)
(-9.6509 -1.17002 -2.40153e-35)
(-9.56948 -1.16659 -3.95068e-19)
(-9.49149 -1.16306 -1.17549e-38)
(-9.41469 -1.15911 -1.57012e-19)
(-9.34549 -1.15596 5.57213e-20)
(-9.26502 -1.15297 9.65854e-20)
(-9.16853 -1.14782 -2.33306e-19)
(-9.07479 -1.14239 -5.43706e-23)
(-8.98431 -1.13663 -1.71674e-23)
(-8.89728 -1.13056 -6.80925e-19)
(-8.81792 -1.12554 -4.70198e-38)
(-8.72181 -1.1202 1.84469e-18)
(-8.60807 -1.11198 -1.10101e-18)
(-8.5021 -1.10403 1.2886e-18)
(-8.39697 -1.09522 -1.48636e-18)
(-8.30283 -1.08718 9.58437e-23)
(-8.19786 -1.07951 1.69788e-18)
(-8.06717 -1.06866 -1.92648e-18)
(-7.93912 -1.05723 -2.17284e-18)
(-7.81362 -1.04508 1.43065e-22)
(-7.69729 -1.03363 -2.56213e-18)
(-7.56285 -1.02195 2.61301e-18)
(-7.39533 -1.00526 2.93118e-18)
(-7.24439 -0.989597 3.28125e-18)
(-7.08621 -0.971486 -6.24481e-39)
(-6.94483 -0.957982 3.41326e-18)
(-6.69984 -0.929967 -2.43027e-22)
(-6.56421 -0.915441 2.59687e-22)
(-6.26649 -0.876813 2.70925e-22)
(-6.21975 -0.876359 -4.59588e-18)
(-5.62932 -0.796498 2.61831e-18)
(-5.86938 -0.834265 3.04098e-22)
(-4.62102 -0.661877 1.41205e-23)
(-5.69706 -0.81478 6.14067e-18)
(-1.77976 -0.750282 5.64237e-37)
)
;
    }
}


// ************************************************************************* //
