# wallShearStress  FACE_DATA 341
#  x  y  z  wallShearStress_x  wallShearStress_y  wallShearStress_z  
0.253551 0.0594249 0.5 -18.1565 -0.451095 3.64185e-18
0.260625 0.059604 0.5 -20.3146 -0.51082 -3.81415e-18
0.268301 0.0597641 0.5 -20.0423 -0.342291 3.34236e-18
0.275825 0.0598682 0.5 -18.8932 -0.194427 -1.01166e-18
0.282831 0.059928 0.5 -18.4195 -0.138954 -9.13347e-19
0.290299 0.0599719 0.5 -18.3988 -0.0874093 5.68734e-35
0.298014 0.0599954 0.5 -18.3271 -0.0312412 -2.0985e-19
0.305661 0.0599931 0.5 -18.1449 0.0354379 -4.27548e-19
0.313016 0.0599637 0.5 -17.8627 0.0990064 -8.89913e-19
0.3202 0.0599102 0.5 -17.6262 0.151893 8.755e-19
0.327394 0.0598346 0.5 -17.4492 0.201946 4.24696e-22
0.334592 0.0597382 0.5 -17.278 0.248147 1.70787e-18
0.341788 0.059622 0.5 -17.1265 0.291693 -1.68632e-18
0.348891 0.0594882 0.5 -16.9873 0.334888 -9.97136e-24
0.355903 0.0593371 0.5 -16.8223 0.376041 -8.29803e-22
0.362912 0.0591677 0.5 -16.6509 0.413615 8.08823e-22
0.369915 0.058981 0.5 -16.506 0.449402 -6.58913e-18
0.376908 0.0587783 0.5 -16.3672 0.482647 1.76324e-37
0.383848 0.0585616 0.5 -16.232 0.514196 -3.25699e-18
0.39071 0.0583318 0.5 -16.0801 0.546087 -1.03326e-23
0.397536 0.0580877 0.5 -15.9196 0.575109 -7.88478e-22
0.404349 0.0578293 0.5 -15.7676 0.602156 3.17149e-18
0.411146 0.0575577 0.5 -15.6278 0.627321 -3.13579e-18
0.417921 0.0572738 0.5 -15.5061 0.651338 7.05297e-38
0.424635 0.05698 0.5 -15.3952 0.675958 -6.21236e-18
0.431287 0.0566758 0.5 -15.2678 0.699904 -6.15051e-18
0.437919 0.0563599 0.5 -15.132 0.72104 1.10037e-22
0.444529 0.056033 0.5 -15.0082 0.741189 -6.01295e-18
0.451115 0.055696 0.5 -14.8966 0.760288 -9.40395e-38
0.457672 0.0553498 0.5 -14.8012 0.778773 5.89163e-18
0.464179 0.0549959 0.5 -14.704 0.797766 -2.86625e-21
0.47064 0.0546337 0.5 -14.5902 0.815653 1.16177e-17
0.477077 0.0542621 0.5 -14.4725 0.831597 5.74117e-18
0.483487 0.0538822 0.5 -14.3657 0.846926 2.77466e-21
0.489866 0.0534947 0.5 -14.2685 0.861467 -2.09531e-23
0.496211 0.0531004 0.5 -14.1815 0.875294 -1.11384e-17
0.50252 0.0526998 0.5 -14.099 0.889862 -1.35724e-21
0.508797 0.0522921 0.5 -14.002 0.904105 5.46053e-18
0.515045 0.0518774 0.5 -13.8988 0.916349 5.40304e-18
0.52126 0.0514563 0.5 -13.802 0.927987 5.34321e-18
0.52744 0.0510296 0.5 -13.7125 0.938909 5.2894e-18
0.533582 0.0505981 0.5 -13.6316 0.949347 6.58277e-36
0.539695 0.0501616 0.5 -13.5602 0.960185 0
0.545788 0.0497191 0.5 -13.4785 0.9717 5.10677e-18
0.551854 0.0492707 0.5 -13.3858 0.981185 -5.0523e-18
0.557885 0.0488177 0.5 -13.2954 0.989911 4.99686e-18
0.563876 0.0483607 0.5 -13.2121 0.99824 -1.41059e-36
0.569827 0.0479005 0.5 -13.1364 1.00627 1.18454e-21
0.575737 0.0474373 0.5 -13.0703 1.01424 -1.19225e-21
0.58164 0.0469687 0.5 -13.0043 1.02323 9.40395e-37
0.587536 0.0464941 0.5 -12.9258 1.03132 -4.68911e-18
0.593393 0.0460162 0.5 -12.843 1.03805 -1.4902e-22
0.599208 0.0455357 0.5 -12.7649 1.04455 1.89852e-35
0.60498 0.045053 0.5 -12.693 1.05087 2.05217e-34
0.610706 0.0445687 0.5 -12.626 1.05689 1.08587e-21
0.616408 0.0440814 0.5 -12.5672 1.06337 1.2818e-22
0.622117 0.043588 0.5 -12.5006 1.07049 -4.31493e-18
0.627812 0.04309 0.5 -12.4232 1.07591 -4.26296e-18
0.633463 0.0425903 0.5 -12.3474 1.08083 8.42315e-18
0.639069 0.0420895 0.5 -12.2774 1.08564 8.32175e-18
0.644626 0.0415881 0.5 -12.2131 1.09028 -4.11143e-18
0.650134 0.0410868 0.5 -12.1555 1.0949 -1.02856e-37
0.655639 0.0405812 0.5 -12.1039 1.10025 -3.94651e-18
0.661165 0.0400689 0.5 -12.0437 1.10587 -7.73516e-18
0.666665 0.039554 0.5 -11.9769 1.11008 6.58277e-37
0.672117 0.0390389 0.5 -11.9142 1.11426 9.08363e-22
0.677519 0.038524 0.5 -11.8581 1.11856 -9.16933e-22
0.682868 0.0380099 0.5 -11.8087 1.12296 -1.59343e-22
0.688165 0.037497 0.5 -11.7685 1.12779 3.61268e-18
0.693484 0.0369779 0.5 -11.7355 1.13392 1.49805e-34
0.698837 0.0364512 0.5 -11.6913 1.13966 8.18665e-22
0.704147 0.0359241 0.5 -11.6354 1.14356 1.36668e-22
0.709405 0.0353979 0.5 -11.576 1.14673 -3.28814e-18
0.714609 0.0348733 0.5 -11.5166 1.14938 3.23291e-18
0.719757 0.0343505 0.5 -11.4583 1.15161 7.65389e-22
0.724855 0.0338293 0.5 -11.4052 1.15398 -3.11725e-18
0.729999 0.0332999 0.5 -11.3493 1.15699 -1.53372e-22
0.73518 0.0327625 0.5 -11.2825 1.15913 -2.89317e-18
0.740306 0.0322267 0.5 -11.2123 1.16034 -6.91874e-22
0.745375 0.0316932 0.5 -11.1449 1.16144 2.77413e-18
0.750386 0.0311622 0.5 -11.0811 1.16244 2.71294e-18
0.755336 0.0306343 0.5 -11.0206 1.16331 -2.65238e-18
0.76026 0.0301061 0.5 -10.9658 1.16454 2.55576e-18
0.765241 0.0295683 0.5 -10.9064 1.16641 -1.00434e-34
0.770246 0.0290241 0.5 -10.8369 1.16708 1.73857e-35
0.775191 0.0284829 0.5 -10.7661 1.16717 3.4582e-36
0.780073 0.027945 0.5 -10.6982 1.1672 4.85525e-35
0.784891 0.0274108 0.5 -10.6332 1.16712 2.54942e-22
0.789645 0.0268807 0.5 -10.5717 1.16701 -2.06774e-18
0.794414 0.0263459 0.5 -10.5132 1.16739 1.92792e-18
0.799254 0.0257999 0.5 -10.4461 1.16797 1.81183e-18
0.804082 0.0252514 0.5 -10.3701 1.16704 -7.0994e-35
0.808843 0.0247071 0.5 -10.2954 1.16581 1.65336e-18
0.813536 0.0241673 0.5 -10.2241 1.1645 -3.83423e-22
0.81816 0.0236326 0.5 -10.156 1.16305 2.9731e-18
0.822721 0.0231023 0.5 -10.0939 1.16187 -1.39517e-18
0.827366 0.0225594 0.5 -10.0288 1.16139 -1.56213e-22
0.832084 0.0220045 0.5 -9.95067 1.15986 -2.26856e-18
0.836729 0.0214548 0.5 -9.86914 1.15729 1.03804e-18
0.841299 0.0209107 0.5 -9.79075 1.15462 -9.39089e-19
0.845793 0.0203728 0.5 -9.71569 1.15176 -8.3681e-19
0.85021 0.0198415 0.5 -9.64559 1.14897 7.05297e-38
0.854677 0.0193015 0.5 -9.57817 1.14686 -1.17336e-18
0.859239 0.0187469 0.5 -9.49896 1.14456 -6.41877e-23
0.863766 0.0181934 0.5 -9.41063 1.14058 3.49091e-19
0.868209 0.0176469 0.5 -9.32459 1.13642 3.55479e-23
0.872568 0.017108 0.5 -9.24226 1.1322 1.35529e-39
0.87684 0.0165772 0.5 -9.16388 1.12794 -0
0.881165 0.0160373 0.5 -9.0872 1.12427 1.43493e-42
0.885597 0.0154808 0.5 -8.99674 1.12027 -4.40112e-23
0.889995 0.0149253 0.5 -8.89578 1.11425 4.49645e-23
0.894296 0.0143788 0.5 -8.79899 1.10811 8.14405e-23
0.8985 0.013842 0.5 -8.70642 1.10177 7.56205e-19
0.902612 0.0133146 0.5 -8.62212 1.0958 -9.23298e-19
0.90685 0.0127685 0.5 -8.53331 1.09055 1.31108e-22
0.911199 0.0122047 0.5 -8.42459 1.08351 -1.17933e-18
0.915436 0.0116524 0.5 -8.31085 1.07486 2.74926e-18
0.919558 0.0111121 0.5 -8.20289 1.06613 -1.01644e-22
0.923564 0.0105848 0.5 -8.10178 1.05739 1.79913e-18
0.92766 0.0100432 0.5 -8.001 1.04925 -1.27161e-22
0.931889 0.00948105 0.5 -7.87815 1.03977 -2.02607e-18
0.936032 0.00892713 0.5 -7.74294 1.02767 -2.28197e-18
0.940034 0.00838932 0.5 -7.61203 1.01518 1.61872e-22
0.943918 0.00786528 0.5 -7.49033 1.00294 2.8151e-18
0.947957 0.00731753 0.5 -7.35659 0.990671 -2.72988e-18
0.952111 0.00675118 0.5 -7.19338 0.975024 -1.88079e-37
0.956082 0.0062066 0.5 -7.02456 0.95717 -2.15544e-22
0.959868 0.005685 0.5 -6.86904 0.93975 -1.90925e-18
0.963806 0.00514008 0.5 -6.70347 0.922058 3.58399e-18
0.967884 0.00457263 0.5 -6.49752 0.899994 -4.00891e-18
0.971729 0.00403453 0.5 -6.28346 0.874624 -4.54236e-18
0.97552 0.00350184 0.5 -6.07926 0.849228 -4.61662e-18
0.979458 0.0029459 0.5 -5.85251 0.823063 1.47872e-22
0.983267 0.00240536 0.5 -5.5469 0.784167 -2.76149e-18
0.98706 0.00186472 0.5 -5.33724 0.757884 -1.5723e-22
0.990882 0.00131704 0.5 -4.79273 0.685818 -6.03042e-18
0.994678 0.000770466 0.5 -4.91991 0.704049 1.78608e-22
0.99832 0.00024378 0.5 -2.20524 0.800512 -3.68596e-21
0.00133235 0.00449653 0.5 -19.2611 -65.4739 2.38875e-39
0.00576479 0.0125392 0.5 -54.1846 -63.1741 -3.00927e-36
0.0127073 0.018847 0.5 -45.1789 -33.2287 -2.43479e-17
0.0207688 0.0238748 0.5 -34.7995 -19.052 -5.68468e-17
0.0291543 0.0279559 0.5 -28.1694 -12.4831 -8.00221e-21
0.037672 0.0313759 0.5 -23.8433 -8.93136 3.07866e-22
0.0464094 0.0343841 0.5 -20.6778 -6.69948 4.3141e-17
0.0551576 0.0370177 0.5 -18.4625 -5.2702 4.78512e-17
0.0639069 0.0393539 0.5 -16.6453 -4.23516 1.0107e-16
0.0727041 0.0414595 0.5 -15.2381 -3.48425 -5.22587e-17
0.081414 0.0433437 0.5 -14.0647 -2.91367 2.76288e-17
0.090183 0.0450639 0.5 -13.0861 -2.46321 -2.71058e-17
0.098871 0.0466203 0.5 -12.2186 -2.09696 -1.06521e-21
0.107395 0.0480148 0.5 -11.4983 -1.80762 -8.8244e-22
0.116087 0.049318 0.5 -10.8562 -1.56162 8.67675e-22
0.124618 0.0504925 0.5 -10.2867 -1.35595 9.25112e-22
0.132994 0.0515502 0.5 -9.83532 -1.19203 2.97454e-17
0.141535 0.0525408 0.5 -9.43787 -1.04876 2.92831e-17
0.149928 0.053435 0.5 -9.11071 -0.927848 1.54674e-17
0.158135 0.0542362 0.5 -8.92303 -0.830803 -4.42608e-23
0.166435 0.0549791 0.5 -9.4836 -0.802034 -1.49968e-17
0.174718 0.0556571 0.5 -11.0528 -0.849909 -1.70447e-37
0.182824 0.0562624 0.5 -13.2744 -0.93116 -1.51029e-17
0.190865 0.0568083 0.5 -16.0912 -1.02951 -4.52809e-22
0.198976 0.0573076 0.5 -18.8499 -1.09475 -2.86986e-42
0.20712 0.0577564 0.5 -20.5608 -1.0601 -1.79122e-34
0.215524 0.0581602 0.5 -20.9034 -0.9277 -6.67466e-18
0.224086 0.0585239 0.5 -20.8016 -0.836092 -6.68573e-18
0.231971 0.0588335 0.5 -20.8882 -0.791986 7.70256e-18
0.239768 0.0591111 0.5 -21.4063 -0.720074 1.06246e-22
0.246955 0.0592927 0.5 -19.1116 -0.27729 -1.79418e-22
0.00133235 -0.00449653 0.5 -19.2376 65.3851 3.00927e-36
0.00576479 -0.0125392 0.5 -53.877 62.794 -1.48896e-16
0.0127073 -0.018847 0.5 -44.702 32.8636 4.72289e-17
0.0207688 -0.0238748 0.5 -34.6681 18.9649 2.8714e-17
0.0291543 -0.0279559 0.5 -28.0334 12.4139 1.16346e-33
0.037672 -0.0313759 0.5 -23.8339 8.92684 8.12744e-39
0.0464094 -0.0343841 0.5 -20.8044 6.74425 -2.73168e-38
0.0551576 -0.0370177 0.5 -18.4196 5.25345 4.5139e-36
0.0639069 -0.0393539 0.5 -16.6576 4.23785 -5.04887e-17
0.0727041 -0.0414595 0.5 -15.2674 3.49187 5.23584e-17
0.081414 -0.0433437 0.5 -14.0857 2.91778 -1.68438e-21
0.090183 -0.0450639 0.5 -13.0885 2.46328 5.42855e-17
0.098871 -0.0466203 0.5 -12.2263 2.09772 5.8344e-17
0.107395 -0.0480148 0.5 -11.4952 1.80652 2.88493e-17
0.116087 -0.049318 0.5 -10.8472 1.55951 1.50463e-36
0.124618 -0.0504925 0.5 -10.2561 1.35121 -3.02884e-17
0.132994 -0.0515502 0.5 -9.7798 1.18438 -5.93938e-17
0.141535 -0.0525408 0.5 -9.3313 1.03581 -2.92157e-17
0.149928 -0.053435 0.5 -8.97437 0.913261 -9.40639e-22
0.158135 -0.0542362 0.5 -8.67646 0.810717 -1.52574e-17
0.166435 -0.0549791 0.5 -8.42955 0.71974 1.50385e-17
0.174718 -0.0556571 0.5 -8.41535 0.652452 4.62698e-22
0.182824 -0.0562624 0.5 -9.09709 0.637956 -9.42414e-22
0.190865 -0.0568083 0.5 -10.7508 0.683085 4.63272e-22
0.198976 -0.0573076 0.5 -13.7762 0.793436 1.45738e-17
0.20712 -0.0577564 0.5 -17.2894 0.885942 -7.15836e-18
0.215524 -0.0581602 0.5 -19.6044 0.867326 6.63739e-18
0.224086 -0.0585239 0.5 -20.5765 0.826535 6.6443e-18
0.231971 -0.0588335 0.5 -20.9993 0.796053 1.17001e-22
0.239768 -0.0591111 0.5 -21.6029 0.725729 -1.0323e-22
0.246955 -0.0592927 0.5 -19.2586 0.282034 2.40311e-18
0.253478 -0.0594229 0.5 -18.3041 0.457692 -3.03015e-23
0.260394 -0.0595984 0.5 -20.5047 0.518056 4.02354e-39
0.267845 -0.0597569 0.5 -20.3133 0.357731 2.08799e-22
0.275233 -0.059862 0.5 -19.17 0.20271 -2.4856e-22
0.282135 -0.059923 0.5 -18.6631 0.14526 -2.28109e-22
0.289403 -0.0599678 0.5 -18.6544 0.0943693 2.15427e-22
0.296942 -0.0599937 0.5 -18.5819 0.0398092 -3.99187e-38
0.304465 -0.0599955 0.5 -18.4361 -0.0249448 -5.84074e-38
0.311708 -0.0599711 0.5 -18.1688 -0.0912354 1.81585e-18
0.318744 -0.0599229 0.5 -17.9085 -0.144268 1.6163e-37
0.325783 -0.0598535 0.5 -17.7286 -0.194857 2.41006e-35
0.332827 -0.0597638 0.5 -17.558 -0.241728 1.74678e-18
0.339871 -0.0596549 0.5 -17.3936 -0.285438 3.45157e-18
0.346848 -0.0595287 0.5 -17.2432 -0.327595 8.53466e-22
0.353736 -0.0593859 0.5 -17.0868 -0.36988 -3.46065e-18
0.360596 -0.0592257 0.5 -16.9127 -0.408285 8.39727e-22
0.367453 -0.0590487 0.5 -16.7478 -0.443981 3.21237e-23
0.3743 -0.0588558 0.5 -16.5999 -0.477487 -3.33851e-18
0.381124 -0.0586486 0.5 -16.4782 -0.509532 8.14171e-22
0.38787 -0.0584289 0.5 -16.3507 -0.542063 6.65969e-18
0.394554 -0.0581963 0.5 -16.1999 -0.57223 -1.78675e-36
0.401228 -0.0579495 0.5 -16.0524 -0.60022 -6.50686e-18
0.407888 -0.0576896 0.5 -15.92 -0.626716 7.9069e-22
0.41453 -0.0574175 0.5 -15.8001 -0.651643 -2.35099e-38
0.421133 -0.0571349 0.5 -15.6918 -0.675459 -3.16728e-18
0.427675 -0.0568427 0.5 -15.575 -0.700287 -7.65888e-22
0.434175 -0.0565398 0.5 -15.4426 -0.722727 7.67833e-22
0.440657 -0.0562259 0.5 -15.3163 -0.743761 -2.35099e-36
0.447118 -0.0559019 0.5 -15.1967 -0.763375 6.11323e-18
0.453553 -0.0555685 0.5 -15.0841 -0.781508 7.33456e-22
0.459952 -0.0552271 0.5 -14.9879 -0.799486 6.00679e-18
0.466305 -0.054878 0.5 -14.8824 -0.818412 5.97297e-18
0.472621 -0.0545205 0.5 -14.7638 -0.83539 -1.18182e-17
0.478913 -0.0541543 0.5 -14.6456 -0.850898 1.04478e-22
0.485178 -0.0537804 0.5 -14.5355 -0.865382 -5.78626e-18
0.491413 -0.0533994 0.5 -14.4365 -0.879289 5.72871e-18
0.497615 -0.0530121 0.5 -14.3503 -0.892795 -6.87824e-22
0.503783 -0.0526186 0.5 -14.2646 -0.907524 1.37289e-21
0.509921 -0.0522183 0.5 -14.1627 -0.920976 -1.11337e-17
0.51603 -0.0518112 0.5 -14.0575 -0.932736 5.50748e-18
0.522108 -0.0513982 0.5 -13.9613 -0.944093 1.09001e-17
0.528152 -0.05098 0.5 -13.8741 -0.954925 5.39605e-18
0.534159 -0.0505573 0.5 -13.7957 -0.965282 6.47277e-22
0.54014 -0.0501296 0.5 -13.727 -0.976227 -9.9342e-24
0.546102 -0.0496961 0.5 -13.6463 -0.987658 5.21138e-18
0.552038 -0.0492571 0.5 -13.5551 -0.997044 5.15717e-18
0.557939 -0.0488136 0.5 -13.47 -1.0061 6.17687e-22
0.563803 -0.0483664 0.5 -13.3925 -1.01481 -1.23296e-21
0.569628 -0.047916 0.5 -13.3228 -1.02319 4.91868e-22
0.575412 -0.047463 0.5 -13.2632 -1.03157 -5.99464e-22
0.58119 -0.0470047 0.5 -13.2036 -1.04074 -4.84567e-18
0.586964 -0.0465405 0.5 -13.1291 -1.04916 1.00658e-23
0.5927 -0.0460731 0.5 -13.0477 -1.05609 1.15787e-21
0.598397 -0.0456031 0.5 -12.9692 -1.0626 -4.6922e-18
0.604052 -0.045131 0.5 -12.896 -1.06883 -4.64188e-18
0.609664 -0.0446572 0.5 -12.8278 -1.07477 1.08145e-36
0.615243 -0.0441814 0.5 -12.7667 -1.08079 2.25695e-36
0.620829 -0.0436999 0.5 -12.701 -1.08764 8.83752e-18
0.626413 -0.0432129 0.5 -12.6235 -1.09328 -3.5735e-36
0.631955 -0.0427242 0.5 -12.5453 -1.09811 -4.31685e-18
0.637454 -0.0422343 0.5 -12.4711 -1.10263 -5.64237e-37
0.642907 -0.0417437 0.5 -12.4034 -1.1071 4.21615e-18
0.648313 -0.041253 0.5 -12.3399 -1.11125 -4.16856e-18
0.653694 -0.0407603 0.5 -12.2836 -1.11566 -1.30565e-22
0.659096 -0.0402614 0.5 -12.2227 -1.12097 4.79713e-22
0.664496 -0.0397577 0.5 -12.1512 -1.12498 3.92029e-18
0.669852 -0.0392536 0.5 -12.0793 -1.12841 -3.86879e-18
0.675159 -0.0387495 0.5 -12.0112 -1.13167 1.80485e-34
0.680418 -0.0382459 0.5 -11.9477 -1.13486 -3.76599e-18
0.685626 -0.0377433 0.5 -11.8875 -1.1378 3.1267e-22
0.690816 -0.0372389 0.5 -11.8332 -1.14109 -3.62159e-18
0.696038 -0.0367272 0.5 -11.7732 -1.14506 -7.99336e-37
0.701263 -0.0362109 0.5 -11.7034 -1.14773 2.05335e-34
0.706438 -0.0356954 0.5 -11.6339 -1.14994 3.3923e-18
0.711561 -0.035181 0.5 -11.5675 -1.15199 -3.3375e-18
0.716633 -0.0346682 0.5 -11.5055 -1.15399 -3.28256e-18
0.72165 -0.0341574 0.5 -11.4465 -1.15578 -3.22929e-18
0.726654 -0.0336446 0.5 -11.3928 -1.15796 3.12129e-18
0.731704 -0.0331235 0.5 -11.3331 -1.16075 1.08124e-23
0.736758 -0.032598 0.5 -11.2639 -1.16223 1.10743e-23
0.741759 -0.0320742 0.5 -11.1952 -1.16335 7.02635e-22
0.746705 -0.0315527 0.5 -11.1293 -1.16428 -6.8787e-22
0.751594 -0.0310337 0.5 -11.0677 -1.16522 6.73072e-22
0.756425 -0.0305178 0.5 -11.0092 -1.16602 -6.58325e-22
0.761255 -0.029999 0.5 -10.955 -1.16722 3.19827e-22
0.766142 -0.0294707 0.5 -10.8945 -1.16892 2.4496e-18
0.771031 -0.0289385 0.5 -10.8251 -1.16933 -2.38287e-18
0.775861 -0.0284092 0.5 -10.7564 -1.16944 -2.88518e-22
0.780632 -0.0278832 0.5 -10.6902 -1.16943 4.49147e-18
0.785341 -0.0273608 0.5 -10.627 -1.16933 -2.1756e-18
0.789989 -0.0268423 0.5 -10.5674 -1.16924 0
0.79466 -0.0263184 0.5 -10.5101 -1.16963 0
0.799401 -0.0257833 0.5 -10.4436 -1.17009 -4.70198e-38
0.804125 -0.0252465 0.5 -10.3689 -1.16915 1.76828e-18
0.808785 -0.0247137 0.5 -10.2962 -1.16801 4.12014e-22
0.81338 -0.0241853 0.5 -10.2268 -1.16676 -1.60562e-18
0.817908 -0.0236617 0.5 -10.1601 -1.16533 -1.52099e-18
0.822369 -0.0231434 0.5 -10.0995 -1.16417 1.43581e-18
0.826908 -0.0226131 0.5 -10.0372 -1.16368 -1.60551e-22
0.831528 -0.0220701 0.5 -9.96205 -1.16239 2.33567e-18
0.836084 -0.0215313 0.5 -9.88192 -1.15991 -1.37787e-22
0.840568 -0.0209979 0.5 -9.80514 -1.15735 7.17465e-43
0.844979 -0.0204704 0.5 -9.73187 -1.15466 -9.91667e-23
0.849317 -0.0199491 0.5 -9.66242 -1.15189 1.00877e-22
0.853667 -0.0194238 0.5 -9.59799 -1.14969 3.50038e-36
0.858113 -0.0188842 0.5 -9.52462 -1.14785 0
0.862564 -0.0183407 0.5 -9.43932 -1.14424 0
0.866936 -0.0178038 0.5 -9.3549 -1.14027 -2.65694e-19
0.871227 -0.0172741 0.5 -9.27416 -1.13626 5.87747e-39
0.875436 -0.016752 0.5 -9.19626 -1.13206 -1.1522e-20
0.879628 -0.0162295 0.5 -9.12424 -1.1284 -1.20545e-19
0.88393 -0.0156905 0.5 -9.04242 -1.12509 2.45942e-19
0.88827 -0.0151435 0.5 -8.94618 -1.11982 1.76324e-38
0.892518 -0.014605 0.5 -8.85075 -1.11399 -7.51488e-23
0.896674 -0.0140755 0.5 -8.7596 -1.10801 1.71617e-22
0.900735 -0.0135557 0.5 -8.67312 -1.1019 -9.69901e-23
0.904824 -0.01303 0.5 -8.59225 -1.09653 9.85371e-19
0.909034 -0.0124858 0.5 -8.4964 -1.09106 2.225e-18
0.913238 -0.0119394 0.5 -8.38474 -1.08297 1.5903e-22
0.917332 -0.0114042 0.5 -8.27677 -1.07457 1.50209e-18
0.921316 -0.010881 0.5 -8.17278 -1.0658 1.24877e-22
0.925241 -0.0103633 0.5 -8.07696 -1.05741 -1.2035e-22
0.929306 -0.00982488 0.5 -7.97005 -1.04931 1.92419e-18
0.933445 -0.00927338 0.5 -7.84027 -1.03844 -2.16737e-18
0.937451 -0.00873681 0.5 -7.70888 -1.02637 -2.42956e-18
0.941321 -0.00821597 0.5 -7.58183 -1.0139 2.70946e-18
0.945168 -0.00769601 0.5 -7.46189 -1.00183 -2.83759e-18
0.949167 -0.00715299 0.5 -7.32158 -0.989152 -2.88375e-18
0.953183 -0.00660441 0.5 -7.15613 -0.972603 3.22282e-18
0.957024 -0.006077 0.5 -6.99241 -0.954956 7.18601e-18
0.960743 -0.00556416 0.5 -6.8415 -0.937801 -3.76158e-37
0.964631 -0.00502557 0.5 -6.67153 -0.920043 -2.82119e-37
0.968598 -0.00447292 0.5 -6.46282 -0.897012 -4.19121e-18
0.972318 -0.00395183 0.5 -6.25686 -0.872268 2.368e-18
0.976051 -0.00342699 0.5 -6.0543 -0.847091 1.45936e-22
0.979926 -0.00287974 0.5 -5.82416 -0.820352 -4.90167e-18
0.983612 -0.00235633 0.5 -5.52416 -0.781785 5.73477e-18
0.987331 -0.00182587 0.5 -5.31744 -0.75589 -5.37342e-18
0.991079 -0.00128868 0.5 -4.77177 -0.683334 1.1108e-23
0.994786 -0.000754822 0.5 -4.907 -0.70254 6.18923e-18
0.998359 -0.000238135 0.5 -2.20298 -0.805421 -3.66197e-18
