/*--------------------------------*- C++ -*----------------------------------*\
  =========                 |
  \\      /  F ield         | OpenFOAM: The Open Source CFD Toolbox
   \\    /   O peration     | Website:  https://openfoam.org
    \\  /    A nd           | Version:  7
     \\/     M anipulation  |
\*---------------------------------------------------------------------------*/
FoamFile
{
    version     2.0;
    format      ascii;
    class       volScalarField;
    location    "0.9975";
    object      nut;
}
// * * * * * * * * * * * * * * * * * * * * * * * * * * * * * * * * * * * * * //

dimensions      [0 2 -1 0 0 0 0];

internalField   nonuniform List<scalar> 
152725
(
0.158082
0.158082
0.158083
0.158084
0.158085
0.158087
0.158088
0.15809
0.158091
0.158093
0.158095
0.158097
0.158099
0.158102
0.158104
0.158107
0.15811
0.158113
0.158116
0.158121
0.158124
0.158129
0.158133
0.158138
0.158142
0.158148
0.158153
0.158159
0.158166
0.158172
0.15818
0.158187
0.158196
0.158204
0.158213
0.158222
0.158232
0.158242
0.158253
0.158264
0.158275
0.158288
0.1583
0.158314
0.158328
0.158343
0.158358
0.158374
0.158391
0.158409
0.158428
0.158448
0.158469
0.158491
0.158515
0.15854
0.158566
0.158593
0.158622
0.158652
0.158684
0.158717
0.15875
0.158786
0.158823
0.158859
0.158898
0.158937
0.158979
0.15902
0.159064
0.159108
0.159155
0.159202
0.159251
0.159302
0.159354
0.159409
0.159465
0.159523
0.159584
0.159646
0.159713
0.159783
0.159856
0.159932
0.160007
0.160088
0.16017
0.160259
0.16035
0.160448
0.160548
0.160655
0.160764
0.160878
0.160996
0.161117
0.161243
0.16137
0.161506
0.161643
0.161794
0.161945
0.162111
0.162279
0.16246
0.162642
0.162837
0.163033
0.163243
0.163455
0.163682
0.16391
0.164157
0.164407
0.164676
0.164948
0.16524
0.165536
0.165857
0.166181
0.166532
0.166883
0.167268
0.167656
0.168077
0.168497
0.16896
0.16942
0.169936
0.170447
0.171026
0.171601
0.172249
0.172919
0.173638
0.174438
0.175269
0.17616
0.177109
0.178141
0.179245
0.180419
0.181765
0.183294
0.184693
0.186372
0.188
0.189757
0.191709
0.193784
0.196037
0.198492
0.201252
0.204305
0.207734
0.211634
0.216129
0.22128
0.227162
0.234282
0.243252
0.254904
0.272962
0.302704
0.349101
0.407319
0.482415
0.52563
0.510228
0.44176
0.390772
0.360058
0.339806
0.32479
0.312995
0.303319
0.295411
0.288897
0.284107
0.280364
0.277556
0.275634
0.274003
0.272999
0.271982
0.271204
0.270216
0.26884
0.266894
0.264176
0.260561
0.256648
0.250958
0.24514
0.237443
0.22951
0.220218
0.210468
0.200414
0.190418
0.154882
0.154887
0.154893
0.154899
0.154905
0.154911
0.154917
0.154923
0.154929
0.154935
0.154942
0.154948
0.154955
0.154962
0.154969
0.154976
0.154983
0.15499
0.154998
0.155005
0.155013
0.155021
0.155029
0.155037
0.155046
0.155055
0.155065
0.155074
0.155084
0.155094
0.155105
0.155116
0.155128
0.15514
0.155153
0.155166
0.15518
0.155194
0.155209
0.155224
0.155241
0.155257
0.155275
0.155293
0.155312
0.155331
0.155351
0.155372
0.155394
0.155416
0.155439
0.155463
0.155488
0.155514
0.15554
0.155568
0.155597
0.155627
0.155658
0.155689
0.155722
0.155756
0.155793
0.155833
0.15587
0.155911
0.155949
0.155998
0.156043
0.156088
0.156136
0.156192
0.156242
0.156291
0.156353
0.156407
0.156472
0.156535
0.156605
0.156674
0.156739
0.156811
0.156895
0.156983
0.157075
0.157162
0.157246
0.15734
0.157432
0.157534
0.15764
0.15775
0.157875
0.158003
0.158132
0.158262
0.158399
0.158537
0.158685
0.158833
0.158992
0.159157
0.159327
0.159509
0.159692
0.159889
0.160088
0.160299
0.160518
0.160742
0.160977
0.161214
0.161466
0.161717
0.161994
0.162276
0.162577
0.16288
0.163208
0.163543
0.163899
0.164261
0.164647
0.165039
0.165472
0.165915
0.166387
0.166864
0.167389
0.167922
0.168511
0.169108
0.169777
0.170452
0.171227
0.171986
0.172856
0.173767
0.174714
0.175685
0.176795
0.177978
0.179264
0.180572
0.181965
0.183411
0.184924
0.186551
0.188151
0.189927
0.191826
0.193849
0.196058
0.198542
0.201223
0.204206
0.207553
0.211366
0.215548
0.220397
0.225882
0.23253
0.240634
0.251848
0.267681
0.293787
0.33185
0.368787
0.434203
0.513441
0.530242
0.481236
0.414324
0.373499
0.348022
0.330893
0.317928
0.307454
0.298677
0.29103
0.284565
0.278781
0.273666
0.269465
0.26651
0.264495
0.263328
0.262424
0.261915
0.261891
0.261847
0.26143
0.26069
0.258768
0.256899
0.254191
0.25096
0.246141
0.240114
0.233569
0.224372
0.212831
0.153528
0.153536
0.153545
0.153553
0.153562
0.153571
0.15358
0.15359
0.153599
0.153609
0.153619
0.15363
0.15364
0.153651
0.153662
0.153674
0.153685
0.153697
0.15371
0.153722
0.153735
0.153748
0.153762
0.153776
0.153791
0.153805
0.153821
0.153836
0.153852
0.153869
0.153886
0.153904
0.153923
0.153942
0.153962
0.153982
0.154004
0.154026
0.154049
0.154073
0.154098
0.154124
0.154151
0.154179
0.154208
0.154238
0.154269
0.154301
0.154334
0.154368
0.154403
0.154439
0.154476
0.154515
0.154554
0.154595
0.154636
0.154679
0.154723
0.154768
0.154814
0.154861
0.15491
0.154959
0.155011
0.155063
0.155117
0.155172
0.155228
0.155287
0.155347
0.155409
0.155473
0.155537
0.155603
0.155673
0.155745
0.15582
0.155897
0.155978
0.156058
0.156143
0.156232
0.156326
0.15642
0.156515
0.156611
0.156707
0.156816
0.156929
0.157043
0.15716
0.15728
0.157404
0.157529
0.15766
0.157792
0.157935
0.158085
0.158234
0.158391
0.15856
0.158731
0.158907
0.159085
0.159265
0.159452
0.159638
0.159843
0.160063
0.160287
0.160515
0.160748
0.160982
0.161253
0.161526
0.161816
0.162116
0.162428
0.162772
0.163128
0.163492
0.163863
0.164236
0.16469
0.165141
0.165621
0.166107
0.166648
0.167198
0.167801
0.168416
0.169113
0.169816
0.170649
0.171363
0.172248
0.173236
0.17414
0.175113
0.176157
0.17732
0.178485
0.179528
0.180747
0.182048
0.183472
0.184923
0.186401
0.188095
0.190118
0.192002
0.194353
0.196779
0.199425
0.202339
0.205794
0.209347
0.213613
0.218214
0.223952
0.23034
0.238563
0.248906
0.264877
0.289108
0.32349
0.356059
0.405109
0.491562
0.529574
0.499855
0.425788
0.378355
0.348864
0.329194
0.314072
0.30159
0.291498
0.282486
0.274637
0.26806
0.262057
0.256648
0.251911
0.247526
0.244014
0.240553
0.237837
0.235021
0.232801
0.230481
0.228582
0.226795
0.225117
0.223634
0.222111
0.22093
0.219602
0.218535
0.217443
0.216617
0.153476
0.153488
0.153501
0.153514
0.153527
0.15354
0.153554
0.153568
0.153583
0.153598
0.153613
0.153629
0.153645
0.153661
0.153678
0.153695
0.153712
0.15373
0.153749
0.153767
0.153787
0.153806
0.153826
0.153846
0.153867
0.153888
0.15391
0.153932
0.153954
0.153977
0.154
0.154023
0.154047
0.154072
0.154096
0.154122
0.154148
0.154174
0.154201
0.154229
0.154258
0.154287
0.154317
0.154348
0.15438
0.154413
0.154447
0.154481
0.154517
0.154554
0.154592
0.154631
0.154671
0.154712
0.154755
0.154798
0.154842
0.154888
0.154935
0.154982
0.155032
0.155079
0.15513
0.155184
0.155238
0.155295
0.155351
0.155399
0.155457
0.155529
0.155579
0.155641
0.155716
0.15577
0.155829
0.155899
0.155973
0.156047
0.156133
0.156203
0.156275
0.156358
0.156461
0.156545
0.156615
0.156702
0.156809
0.15691
0.157
0.157111
0.157226
0.157335
0.157469
0.157597
0.15771
0.157809
0.157922
0.15807
0.158215
0.158349
0.158522
0.158697
0.15887
0.159038
0.159205
0.159384
0.159558
0.159752
0.159942
0.160163
0.160399
0.160631
0.160877
0.16112
0.161395
0.161666
0.161966
0.162274
0.16261
0.16295
0.163326
0.163708
0.164119
0.164535
0.164995
0.165451
0.165954
0.166466
0.167028
0.167602
0.168214
0.168845
0.169528
0.170223
0.171001
0.171749
0.172564
0.173402
0.174271
0.175158
0.176125
0.177086
0.178082
0.179139
0.180328
0.181578
0.182927
0.184428
0.185877
0.187691
0.189538
0.191591
0.19381
0.196313
0.198869
0.201848
0.20499
0.208722
0.212658
0.21738
0.222596
0.229129
0.236775
0.247356
0.262286
0.28572
0.318361
0.342942
0.376987
0.467396
0.526273
0.516552
0.445023
0.391925
0.358782
0.336641
0.320004
0.306372
0.295389
0.286092
0.277894
0.270766
0.264492
0.258903
0.253742
0.249291
0.245043
0.241507
0.238173
0.235237
0.232737
0.230313
0.22836
0.226298
0.224685
0.223017
0.221692
0.22031
0.219257
0.218253
0.217261
0.216174
0.1527
0.152706
0.152713
0.152719
0.152726
0.152734
0.152741
0.152749
0.152757
0.152765
0.152774
0.152782
0.152792
0.152801
0.152811
0.152821
0.152831
0.152842
0.152853
0.152865
0.152877
0.152889
0.152901
0.152914
0.152928
0.152942
0.152956
0.152971
0.152986
0.153001
0.153017
0.153034
0.153051
0.153069
0.153087
0.153106
0.153126
0.153146
0.153167
0.153189
0.153211
0.153235
0.153259
0.153285
0.153311
0.153335
0.153362
0.153393
0.153424
0.153457
0.153491
0.153523
0.153554
0.153593
0.153631
0.153664
0.153702
0.153746
0.153788
0.15383
0.153878
0.153924
0.153972
0.154025
0.154077
0.154129
0.154186
0.154247
0.154306
0.154364
0.154428
0.154487
0.154552
0.154619
0.15469
0.15476
0.154826
0.154905
0.154996
0.155072
0.155153
0.155237
0.155337
0.155427
0.155526
0.155631
0.155735
0.155836
0.155933
0.156056
0.156175
0.156298
0.156418
0.156559
0.156689
0.15683
0.156982
0.157109
0.157257
0.157403
0.157592
0.157737
0.157923
0.158125
0.158326
0.158546
0.158737
0.158951
0.159153
0.159378
0.159653
0.159899
0.160143
0.160418
0.160769
0.161071
0.161358
0.161728
0.162082
0.162419
0.162806
0.163276
0.163654
0.164082
0.164581
0.165025
0.165501
0.166014
0.166584
0.167164
0.167717
0.168334
0.168975
0.169637
0.170346
0.171154
0.171807
0.17261
0.173543
0.174377
0.175239
0.176253
0.177355
0.178449
0.179655
0.180889
0.182348
0.183822
0.18555
0.187168
0.189091
0.191045
0.193333
0.195667
0.198375
0.201101
0.204356
0.20773
0.211879
0.21626
0.221689
0.227739
0.235588
0.245737
0.260743
0.283488
0.313719
0.336028
0.35904
0.436963
0.517438
0.525495
0.460735
0.402006
0.365108
0.340822
0.323359
0.309142
0.297463
0.287832
0.279472
0.272244
0.265774
0.260029
0.254851
0.250111
0.245894
0.242031
0.238664
0.235582
0.232904
0.230405
0.228324
0.226214
0.224561
0.222807
0.221445
0.220025
0.218961
0.217949
0.217137
0.216381
0.152581
0.152594
0.152608
0.152622
0.152636
0.152651
0.152666
0.152681
0.152696
0.152712
0.152728
0.152744
0.152761
0.152778
0.152795
0.152813
0.152831
0.152849
0.152868
0.152887
0.152906
0.152926
0.152946
0.152967
0.152987
0.153009
0.153031
0.153053
0.153076
0.153099
0.153122
0.153147
0.153172
0.153197
0.153223
0.15325
0.153277
0.153305
0.153334
0.153363
0.153393
0.153424
0.153456
0.153488
0.153521
0.153555
0.15359
0.153626
0.153662
0.1537
0.153738
0.153777
0.153817
0.153858
0.1539
0.153943
0.153987
0.154032
0.154078
0.154126
0.154174
0.154224
0.154275
0.154328
0.154381
0.154437
0.154493
0.154554
0.154613
0.154678
0.154747
0.154819
0.154878
0.154948
0.155027
0.155103
0.155173
0.155251
0.155344
0.155416
0.155492
0.155577
0.155674
0.155782
0.15586
0.155958
0.156073
0.156164
0.156278
0.156387
0.156492
0.156612
0.156738
0.156863
0.156995
0.157142
0.157309
0.157425
0.157569
0.157745
0.157896
0.158048
0.158229
0.158413
0.158596
0.158801
0.159014
0.15923
0.159457
0.159683
0.159913
0.160173
0.160449
0.160699
0.160985
0.161332
0.161628
0.161943
0.162287
0.162627
0.163023
0.163435
0.16381
0.164246
0.164672
0.165096
0.165609
0.166101
0.16662
0.167163
0.167672
0.168247
0.16886
0.169554
0.170202
0.170862
0.171595
0.172398
0.173243
0.174106
0.175032
0.176059
0.17711
0.178252
0.179448
0.180793
0.18212
0.183645
0.185186
0.186982
0.188775
0.190841
0.192928
0.195315
0.197762
0.200682
0.203658
0.20725
0.211007
0.215627
0.220634
0.22693
0.234464
0.244776
0.259683
0.281892
0.310927
0.328607
0.342428
0.408195
0.506788
0.530057
0.478058
0.41225
0.371492
0.345159
0.326332
0.311742
0.299811
0.289823
0.28118
0.273652
0.267038
0.261147
0.255874
0.251135
0.246813
0.242967
0.239433
0.236267
0.233461
0.230861
0.228648
0.226498
0.224753
0.222965
0.221554
0.220097
0.218981
0.217882
0.216899
0.215838
0.152155
0.152164
0.152173
0.152183
0.152193
0.152203
0.152213
0.152224
0.152235
0.152246
0.152257
0.152269
0.152281
0.152294
0.152307
0.15232
0.152334
0.152348
0.152363
0.152378
0.152393
0.152408
0.152424
0.152441
0.152458
0.152475
0.152493
0.152511
0.152529
0.152548
0.152568
0.152588
0.152609
0.15263
0.152652
0.152675
0.152698
0.152722
0.152747
0.152772
0.152798
0.152825
0.152853
0.152882
0.152911
0.152942
0.152974
0.153007
0.15304
0.153075
0.153111
0.153148
0.153186
0.153226
0.153266
0.153309
0.153352
0.153396
0.153442
0.153489
0.153538
0.153588
0.153639
0.153692
0.153746
0.153802
0.15386
0.153919
0.153981
0.154043
0.154109
0.154176
0.154246
0.154317
0.154392
0.154468
0.154548
0.154629
0.154713
0.154802
0.154897
0.154988
0.155082
0.155182
0.155288
0.155397
0.15551
0.155624
0.155741
0.155864
0.155988
0.156117
0.156248
0.156389
0.156532
0.156678
0.156831
0.156993
0.157157
0.157324
0.157499
0.157678
0.157868
0.158063
0.158262
0.158469
0.158693
0.158916
0.159148
0.159391
0.159646
0.1599
0.160173
0.160453
0.160747
0.161047
0.161369
0.161698
0.16204
0.162389
0.162755
0.163127
0.163529
0.163948
0.164397
0.164839
0.165316
0.1658
0.1663
0.166838
0.167447
0.168017
0.168636
0.16927
0.16996
0.170679
0.171445
0.172224
0.17306
0.173979
0.174917
0.17592
0.176962
0.178131
0.179319
0.180617
0.182009
0.183476
0.185101
0.186762
0.188635
0.190527
0.1927
0.194925
0.197505
0.200159
0.203318
0.206627
0.2106
0.214903
0.220134
0.226177
0.233899
0.244234
0.259254
0.281341
0.308377
0.323473
0.331709
0.38032
0.488821
0.530993
0.493184
0.422966
0.378454
0.349986
0.329835
0.314521
0.302149
0.291766
0.282883
0.275167
0.268367
0.26234
0.256945
0.252071
0.247713
0.243702
0.240127
0.236813
0.233887
0.231186
0.228857
0.226659
0.224798
0.222983
0.22152
0.220001
0.218798
0.217615
0.216601
0.215559
0.152139
0.152153
0.152166
0.15218
0.152195
0.15221
0.152224
0.15224
0.152255
0.152271
0.152287
0.152303
0.15232
0.152338
0.152355
0.152373
0.152392
0.152411
0.15243
0.15245
0.15247
0.15249
0.152511
0.152532
0.152554
0.152576
0.152599
0.152622
0.152645
0.152669
0.152693
0.152718
0.152744
0.15277
0.152796
0.152823
0.152851
0.152879
0.152908
0.152938
0.152968
0.152999
0.15303
0.153063
0.153096
0.15313
0.153165
0.153201
0.153237
0.153275
0.153313
0.153353
0.153393
0.153434
0.153477
0.15352
0.153565
0.153611
0.153658
0.153706
0.153756
0.153807
0.153859
0.153913
0.153967
0.154024
0.154082
0.154142
0.154203
0.154267
0.154331
0.154398
0.154467
0.154538
0.15461
0.154686
0.154763
0.154843
0.154924
0.15501
0.155096
0.155188
0.155281
0.155378
0.155477
0.155582
0.155688
0.1558
0.155913
0.156033
0.156156
0.156284
0.156413
0.156551
0.156691
0.156837
0.156986
0.157142
0.157301
0.157467
0.157639
0.157814
0.158
0.158189
0.158385
0.158587
0.1588
0.159015
0.159243
0.159477
0.159722
0.15997
0.160238
0.160509
0.160792
0.161081
0.161397
0.161711
0.162045
0.16239
0.162756
0.163126
0.163527
0.16394
0.164364
0.164804
0.165279
0.16576
0.166281
0.16681
0.167376
0.167956
0.16858
0.16922
0.169911
0.170626
0.171371
0.172188
0.173018
0.17393
0.174845
0.175878
0.176925
0.178082
0.179261
0.180587
0.181934
0.183417
0.184955
0.186667
0.188396
0.190381
0.19238
0.194714
0.197091
0.199929
0.20286
0.206363
0.210121
0.214596
0.219656
0.225824
0.233554
0.244009
0.259234
0.281165
0.306725
0.318329
0.321392
0.358437
0.47062
0.529848
0.506578
0.432444
0.384268
0.35385
0.33279
0.316943
0.304035
0.293373
0.284236
0.276337
0.269403
0.263247
0.257769
0.252848
0.248411
0.244409
0.240758
0.237459
0.234458
0.23172
0.229313
0.227021
0.225133
0.22322
0.221668
0.220106
0.2188
0.217546
0.216397
0.215123
0.15183
0.151841
0.151852
0.151864
0.151875
0.151887
0.151899
0.151912
0.151924
0.151937
0.151951
0.151964
0.151978
0.151993
0.152008
0.152023
0.152039
0.152055
0.152072
0.152089
0.152106
0.152124
0.152143
0.152161
0.152181
0.152201
0.152221
0.152242
0.152263
0.152285
0.152307
0.15233
0.152354
0.152378
0.152403
0.152428
0.152454
0.152481
0.152509
0.152537
0.152566
0.152596
0.152626
0.152657
0.15269
0.152723
0.152757
0.152792
0.152828
0.152865
0.152903
0.152942
0.152982
0.153024
0.153066
0.15311
0.153155
0.153201
0.153249
0.153298
0.153348
0.153401
0.153454
0.15351
0.153566
0.153625
0.153686
0.153748
0.153812
0.153879
0.153947
0.154018
0.15409
0.154165
0.154241
0.154321
0.154403
0.154488
0.154574
0.154665
0.154757
0.154853
0.154952
0.155054
0.155158
0.155268
0.155379
0.155495
0.155614
0.155737
0.155864
0.155996
0.15613
0.156271
0.156414
0.156565
0.156717
0.156878
0.157041
0.157213
0.157387
0.157571
0.157758
0.157953
0.158157
0.158365
0.158584
0.158806
0.159042
0.159281
0.159535
0.159793
0.160066
0.160343
0.160638
0.160938
0.161256
0.16158
0.161926
0.162277
0.162649
0.163029
0.163435
0.163844
0.164288
0.164736
0.165218
0.165705
0.166231
0.166761
0.167339
0.167922
0.168558
0.169201
0.169901
0.170614
0.171391
0.172186
0.173047
0.173938
0.174902
0.175907
0.176989
0.17811
0.179335
0.180587
0.181963
0.183392
0.184948
0.186575
0.188341
0.190227
0.192286
0.194525
0.196995
0.199713
0.202753
0.206147
0.209996
0.214383
0.219507
0.225683
0.233509
0.244464
0.260432
0.282772
0.305121
0.313501
0.313409
0.337168
0.44602
0.525288
0.516739
0.443905
0.391612
0.358554
0.336327
0.319682
0.306339
0.295287
0.285896
0.277778
0.270661
0.264365
0.258752
0.253696
0.24919
0.245047
0.241379
0.237959
0.234915
0.232068
0.229536
0.227208
0.225149
0.223276
0.221622
0.220084
0.218708
0.21743
0.216212
0.214789
0.15179
0.151802
0.151815
0.151829
0.151842
0.151856
0.15187
0.151885
0.1519
0.151915
0.15193
0.151946
0.151963
0.151979
0.151996
0.152014
0.152032
0.15205
0.152069
0.152088
0.152108
0.152129
0.152149
0.152171
0.152193
0.152215
0.152238
0.152261
0.152285
0.15231
0.152335
0.15236
0.152387
0.152414
0.152441
0.152469
0.152498
0.152528
0.152558
0.152589
0.152621
0.152654
0.152687
0.152722
0.152757
0.152793
0.15283
0.152868
0.152907
0.152947
0.152988
0.15303
0.153073
0.153117
0.153162
0.153208
0.153256
0.153304
0.153354
0.153405
0.153458
0.153512
0.153567
0.153624
0.153682
0.153742
0.153803
0.153866
0.153931
0.153998
0.154066
0.154137
0.154209
0.154284
0.154361
0.15444
0.154521
0.154605
0.15469
0.154779
0.15487
0.154965
0.155062
0.155162
0.155265
0.155372
0.155481
0.155596
0.155712
0.155834
0.155958
0.156089
0.156221
0.15636
0.156501
0.15665
0.156801
0.15696
0.157122
0.157292
0.157465
0.157648
0.157833
0.158029
0.158228
0.158437
0.158654
0.158876
0.15911
0.159349
0.159601
0.159857
0.160127
0.160407
0.160695
0.161001
0.16131
0.161642
0.161976
0.162336
0.162699
0.163089
0.163483
0.163909
0.164337
0.164801
0.165268
0.165774
0.166285
0.166839
0.167398
0.168006
0.168622
0.169291
0.169971
0.170711
0.171463
0.172285
0.173124
0.17404
0.174976
0.175994
0.177044
0.178182
0.17936
0.180639
0.181966
0.183406
0.18491
0.18657
0.188274
0.190219
0.192211
0.194519
0.196919
0.199706
0.202683
0.206128
0.209927
0.214342
0.219463
0.225752
0.233953
0.245328
0.261675
0.284033
0.30314
0.308478
0.305845
0.322638
0.423062
0.520887
0.524887
0.45334
0.397652
0.362576
0.339147
0.321902
0.308119
0.296777
0.287158
0.278868
0.271629
0.265227
0.259531
0.25443
0.249826
0.24568
0.241922
0.238487
0.235414
0.232517
0.230004
0.227549
0.225502
0.223462
0.221783
0.220107
0.218693
0.217308
0.216025
0.214495
0.151634
0.151646
0.151657
0.151669
0.151681
0.151694
0.151706
0.151719
0.151733
0.151746
0.15176
0.151774
0.151789
0.151804
0.151819
0.151835
0.151851
0.151868
0.151885
0.151903
0.151921
0.15194
0.151959
0.151978
0.151998
0.152019
0.15204
0.152062
0.152084
0.152107
0.152131
0.152155
0.15218
0.152205
0.152231
0.152258
0.152286
0.152314
0.152343
0.152373
0.152404
0.152435
0.152468
0.152501
0.152536
0.152571
0.152607
0.152645
0.152683
0.152723
0.152764
0.152805
0.152849
0.152893
0.152938
0.152985
0.153033
0.153083
0.153134
0.153186
0.15324
0.153295
0.153352
0.15341
0.15347
0.153532
0.153595
0.15366
0.153728
0.153797
0.153868
0.153941
0.154016
0.154094
0.154174
0.154257
0.154341
0.154428
0.154518
0.154611
0.154705
0.154804
0.154905
0.15501
0.155117
0.155229
0.155342
0.155461
0.155582
0.155709
0.155837
0.155972
0.156109
0.156253
0.156399
0.156552
0.156708
0.156872
0.157039
0.157214
0.157392
0.157579
0.157769
0.15797
0.158174
0.158388
0.158606
0.158837
0.159071
0.159318
0.159569
0.159836
0.160105
0.160393
0.160683
0.160993
0.161307
0.161641
0.161981
0.162344
0.162713
0.163107
0.163508
0.163936
0.164372
0.164838
0.165314
0.165823
0.166342
0.166899
0.167468
0.16808
0.168704
0.169379
0.170067
0.170812
0.171576
0.172397
0.173248
0.174155
0.175106
0.176112
0.177178
0.178298
0.179496
0.180744
0.182094
0.183498
0.185032
0.186631
0.188403
0.190268
0.192353
0.194587
0.197096
0.199824
0.202899
0.206298
0.210174
0.214601
0.219846
0.226327
0.234872
0.246913
0.264101
0.285966
0.301163
0.303231
0.298191
0.308534
0.397224
0.512606
0.529775
0.465172
0.405154
0.367169
0.342566
0.324526
0.31029
0.298573
0.288687
0.28017
0.272746
0.26618
0.26037
0.255119
0.250471
0.246192
0.242413
0.238885
0.235779
0.232842
0.230249
0.227809
0.225645
0.223604
0.221816
0.220101
0.218609
0.217188
0.215856
0.214275
0.151611
0.151623
0.151636
0.151649
0.151663
0.151677
0.151691
0.151705
0.15172
0.151735
0.15175
0.151766
0.151782
0.151799
0.151816
0.151833
0.151851
0.151869
0.151888
0.151907
0.151927
0.151948
0.151968
0.15199
0.152012
0.152034
0.152057
0.152081
0.152105
0.15213
0.152155
0.152182
0.152208
0.152236
0.152264
0.152293
0.152323
0.152353
0.152384
0.152416
0.152449
0.152483
0.152517
0.152553
0.152589
0.152626
0.152665
0.152704
0.152745
0.152786
0.152829
0.152873
0.152918
0.152964
0.153011
0.15306
0.15311
0.153161
0.153214
0.153268
0.153323
0.15338
0.153438
0.153498
0.153559
0.153622
0.153687
0.153753
0.153821
0.153891
0.153964
0.154037
0.154114
0.154191
0.154272
0.154354
0.154439
0.154526
0.154617
0.154709
0.154804
0.154902
0.155003
0.155108
0.155214
0.155325
0.155438
0.155557
0.155677
0.155803
0.155931
0.156065
0.156201
0.156344
0.15649
0.156642
0.156797
0.15696
0.157126
0.1573
0.157477
0.157663
0.157853
0.158053
0.158255
0.15847
0.158687
0.158918
0.159152
0.1594
0.159651
0.159919
0.16019
0.160479
0.160771
0.161083
0.1614
0.161737
0.162079
0.162445
0.162816
0.163213
0.163616
0.164047
0.164486
0.164955
0.165433
0.165946
0.166468
0.167028
0.1676
0.168214
0.168842
0.169517
0.170208
0.170951
0.171718
0.172535
0.17339
0.174294
0.175245
0.17625
0.177309
0.17843
0.179611
0.180869
0.182193
0.183615
0.185119
0.186754
0.188498
0.190413
0.192481
0.194767
0.197262
0.200033
0.203092
0.206525
0.2104
0.214883
0.220238
0.226987
0.236084
0.248928
0.266866
0.287248
0.298219
0.297862
0.290733
0.298427
0.374128
0.502891
0.532878
0.475384
0.41141
0.371183
0.345332
0.326653
0.312015
0.300009
0.289908
0.281227
0.273669
0.267014
0.261094
0.255817
0.251049
0.24677
0.242903
0.239323
0.236184
0.233123
0.230559
0.227955
0.22585
0.223668
0.221918
0.22008
0.218583
0.217065
0.215641
0.214045
0.151518
0.15153
0.151543
0.151555
0.151568
0.151581
0.151595
0.151608
0.151622
0.151637
0.151651
0.151666
0.151682
0.151698
0.151714
0.15173
0.151748
0.151765
0.151783
0.151802
0.151821
0.151841
0.151861
0.151881
0.151903
0.151925
0.151947
0.15197
0.151994
0.152018
0.152043
0.152068
0.152095
0.152122
0.152149
0.152178
0.152207
0.152237
0.152268
0.152299
0.152332
0.152365
0.152399
0.152435
0.152471
0.152508
0.152546
0.152585
0.152625
0.152667
0.15271
0.152754
0.152799
0.152845
0.152892
0.152941
0.152992
0.153043
0.153096
0.153151
0.153207
0.153264
0.153323
0.153384
0.153447
0.153511
0.153577
0.153644
0.153714
0.153786
0.15386
0.153935
0.154013
0.154093
0.154176
0.154261
0.154349
0.154438
0.154531
0.154626
0.154725
0.154826
0.15493
0.155037
0.155148
0.155262
0.155379
0.155501
0.155625
0.155755
0.155887
0.156025
0.156165
0.156312
0.156461
0.156617
0.156776
0.156943
0.157112
0.15729
0.15747
0.15766
0.157853
0.158056
0.158263
0.15848
0.158702
0.158936
0.159174
0.159426
0.159682
0.159953
0.160228
0.160521
0.160818
0.161134
0.161455
0.161797
0.162144
0.162514
0.16289
0.163291
0.1637
0.164136
0.164579
0.165054
0.165537
0.166054
0.166581
0.167147
0.167724
0.168344
0.168978
0.169658
0.170361
0.171105
0.171888
0.172707
0.173576
0.174482
0.175445
0.176451
0.177518
0.178636
0.179825
0.181076
0.182414
0.183832
0.185363
0.187
0.188784
0.190711
0.192825
0.195127
0.197663
0.20045
0.203549
0.207016
0.210965
0.215571
0.221161
0.228348
0.238159
0.251974
0.270642
0.2881
0.294653
0.291978
0.282477
0.28837
0.353714
0.489099
0.53384
0.486717
0.418815
0.375662
0.34864
0.32914
0.314045
0.301689
0.291328
0.282422
0.274693
0.267858
0.261837
0.256403
0.2516
0.247181
0.243287
0.239629
0.23642
0.233364
0.230702
0.228136
0.22593
0.223734
0.221915
0.220046
0.218518
0.216973
0.215533
0.21377
0.151531
0.151544
0.151557
0.151571
0.151585
0.151599
0.151613
0.151628
0.151643
0.151659
0.151674
0.15169
0.151707
0.151724
0.151741
0.151759
0.151777
0.151796
0.151816
0.151836
0.151856
0.151877
0.151898
0.15192
0.151943
0.151966
0.15199
0.152015
0.15204
0.152066
0.152092
0.152119
0.152147
0.152175
0.152205
0.152234
0.152265
0.152297
0.152329
0.152362
0.152396
0.152431
0.152466
0.152503
0.15254
0.152579
0.152618
0.152659
0.1527
0.152743
0.152786
0.152831
0.152877
0.152925
0.152973
0.153023
0.153074
0.153126
0.15318
0.153235
0.153292
0.15335
0.153409
0.153471
0.153533
0.153598
0.153664
0.153732
0.153802
0.153874
0.153948
0.154024
0.154102
0.154183
0.154266
0.154351
0.154438
0.154529
0.154621
0.154717
0.154815
0.154916
0.15502
0.155128
0.155238
0.155353
0.155469
0.155591
0.155715
0.155845
0.155977
0.156114
0.156255
0.156401
0.156551
0.156707
0.156866
0.157033
0.157202
0.157381
0.157562
0.157753
0.157946
0.158151
0.158358
0.158577
0.1588
0.159035
0.159274
0.159528
0.159785
0.160058
0.160335
0.16063
0.160928
0.161247
0.16157
0.161914
0.162263
0.162636
0.163015
0.16342
0.163831
0.16427
0.164717
0.165196
0.165683
0.166205
0.166737
0.167307
0.167889
0.168515
0.169156
0.169841
0.170551
0.171301
0.172087
0.172914
0.173781
0.174693
0.17565
0.176659
0.177718
0.17884
0.180022
0.181281
0.182619
0.184057
0.185596
0.187267
0.189068
0.191034
0.193166
0.195502
0.198053
0.200871
0.203997
0.207516
0.211546
0.2163
0.222179
0.229892
0.240562
0.255408
0.274215
0.288094
0.290427
0.285277
0.274516
0.279886
0.335275
0.475341
0.534139
0.496162
0.425156
0.379721
0.351408
0.331248
0.315739
0.303109
0.292541
0.283479
0.275622
0.268684
0.262565
0.257045
0.252165
0.247657
0.243715
0.239969
0.23677
0.233598
0.230996
0.228321
0.22616
0.22389
0.222065
0.220119
0.218535
0.216941
0.215479
0.2136
0.151481
0.151493
0.151506
0.15152
0.151533
0.151547
0.151561
0.151576
0.151591
0.151606
0.151621
0.151637
0.151653
0.15167
0.151687
0.151704
0.151722
0.151741
0.15176
0.151779
0.151799
0.15182
0.151841
0.151863
0.151886
0.151909
0.151932
0.151956
0.151981
0.152007
0.152033
0.15206
0.152088
0.152116
0.152145
0.152175
0.152205
0.152237
0.152269
0.152302
0.152336
0.15237
0.152406
0.152442
0.152479
0.152518
0.152557
0.152597
0.152638
0.152681
0.152724
0.152769
0.152815
0.152862
0.15291
0.15296
0.153011
0.153063
0.153117
0.153172
0.153229
0.153287
0.153347
0.153408
0.153472
0.153537
0.153604
0.153673
0.153744
0.153817
0.153892
0.15397
0.154049
0.154131
0.154215
0.154302
0.154391
0.154484
0.154578
0.154677
0.154777
0.154881
0.154987
0.155098
0.155211
0.155328
0.155448
0.155573
0.1557
0.155832
0.155967
0.156108
0.156251
0.156401
0.156554
0.156713
0.156876
0.157046
0.157219
0.157401
0.157586
0.15778
0.157977
0.158185
0.158396
0.158619
0.158846
0.159085
0.159328
0.159585
0.159846
0.160124
0.160405
0.160704
0.161007
0.16133
0.161657
0.162006
0.16236
0.162738
0.163121
0.16353
0.163947
0.164391
0.164844
0.165328
0.165822
0.16635
0.16689
0.167468
0.16806
0.168695
0.169345
0.170043
0.170758
0.171524
0.172311
0.173151
0.17402
0.174941
0.175902
0.176918
0.177986
0.179117
0.180317
0.181593
0.18296
0.184424
0.186006
0.187707
0.189555
0.19155
0.193723
0.196085
0.19868
0.201539
0.20473
0.208337
0.212508
0.217511
0.223834
0.232308
0.244079
0.260117
0.277016
0.285903
0.285384
0.277418
0.266115
0.271529
0.321163
0.45744
0.53264
0.504577
0.432278
0.38435
0.354551
0.333618
0.317621
0.304665
0.293843
0.284568
0.276547
0.269451
0.263243
0.257609
0.252661
0.24807
0.244071
0.240269
0.23701
0.233815
0.231135
0.228389
0.226213
0.223889
0.222023
0.22008
0.218452
0.216794
0.215275
0.213544
0.151513
0.151526
0.15154
0.151554
0.151568
0.151583
0.151598
0.151613
0.151629
0.151645
0.151661
0.151678
0.151695
0.151712
0.15173
0.151748
0.151767
0.151787
0.151807
0.151827
0.151848
0.15187
0.151892
0.151915
0.151938
0.151962
0.151986
0.152012
0.152037
0.152064
0.152091
0.152119
0.152147
0.152177
0.152207
0.152237
0.152269
0.152301
0.152334
0.152368
0.152402
0.152438
0.152474
0.152511
0.152549
0.152588
0.152627
0.152668
0.15271
0.152753
0.152797
0.152842
0.152888
0.152935
0.152983
0.153033
0.153084
0.153137
0.153191
0.153246
0.153303
0.153361
0.153421
0.153483
0.153547
0.153612
0.153679
0.153748
0.153819
0.153892
0.153967
0.154045
0.154125
0.154207
0.154291
0.154379
0.154468
0.154561
0.154655
0.154754
0.154854
0.154958
0.155065
0.155176
0.155289
0.155406
0.155526
0.155651
0.155778
0.155911
0.156046
0.156188
0.156331
0.156482
0.156635
0.156795
0.156958
0.157129
0.157303
0.157486
0.157672
0.157868
0.158066
0.158276
0.158488
0.158713
0.158941
0.159182
0.159428
0.159686
0.159952
0.160227
0.160518
0.160812
0.161126
0.161444
0.161783
0.162126
0.162494
0.162866
0.163264
0.163667
0.1641
0.164539
0.16501
0.165489
0.166003
0.166527
0.16709
0.167663
0.168278
0.168907
0.16958
0.170269
0.171006
0.171761
0.172568
0.173396
0.174281
0.175195
0.176169
0.177185
0.178266
0.179408
0.180627
0.181927
0.183319
0.184817
0.186425
0.188164
0.190034
0.192064
0.19426
0.196661
0.199293
0.20221
0.205474
0.209189
0.213542
0.218866
0.225758
0.23514
0.248103
0.264874
0.278439
0.282932
0.279995
0.268474
0.258357
0.264342
0.308393
0.440114
0.530604
0.512291
0.438564
0.388447
0.357344
0.335715
0.319306
0.306068
0.295057
0.285632
0.277487
0.270282
0.263993
0.258219
0.253281
0.248484
0.244538
0.240527
0.237292
0.233949
0.231227
0.228437
0.226199
0.223851
0.221986
0.220023
0.218392
0.216727
0.215147
0.213399
0.151492
0.151505
0.151519
0.151533
0.151547
0.151561
0.151576
0.151591
0.151606
0.151622
0.151638
0.151655
0.151671
0.151688
0.151706
0.151724
0.151742
0.151762
0.151781
0.151801
0.151822
0.151843
0.151865
0.151887
0.15191
0.151934
0.151958
0.151983
0.152008
0.152034
0.152061
0.152088
0.152116
0.152145
0.152175
0.152205
0.152236
0.152267
0.1523
0.152333
0.152367
0.152402
0.152438
0.152474
0.152512
0.15255
0.152589
0.15263
0.152671
0.152713
0.152757
0.152802
0.152847
0.152894
0.152943
0.152992
0.153043
0.153096
0.15315
0.153205
0.153262
0.153321
0.153381
0.153444