/*--------------------------------*- C++ -*----------------------------------*\
  =========                 |
  \\      /  F ield         | OpenFOAM: The Open Source CFD Toolbox
   \\    /   O peration     | Website:  https://openfoam.org
    \\  /    A nd           | Version:  7
     \\/     M anipulation  |
\*---------------------------------------------------------------------------*/
FoamFile
{
    version     2.0;
    format      ascii;
    class       surfaceScalarField;
    location    "0.9975";
    object      phi;
}
// * * * * * * * * * * * * * * * * * * * * * * * * * * * * * * * * * * * * * //

dimensions      [0 3 -1 0 0 0 0];

internalField   nonuniform List<scalar> 
304702
(
29.1479
-0.137388
-29.1414
29.1546
-0.140666
29.1614
-0.143978
29.1682
-0.147397
29.1752
-0.1509
29.1823
-0.154496
29.1895
-0.158175
29.1968
-0.161945
29.2042
-0.165805
29.2117
-0.169759
29.2193
-0.173811
29.227
-0.177979
29.235
-0.182249
29.243
-0.186627
29.2513
-0.191108
29.2597
-0.195705
29.2683
-0.20041
29.2771
-0.205237
29.286
-0.210177
29.2951
-0.215248
29.3044
-0.220436
29.3139
-0.225763
29.3236
-0.231212
29.3335
-0.236809
29.3435
-0.242533
29.3538
-0.248416
29.3642
-0.25443
29.3748
-0.260614
29.3857
-0.266934
29.3967
-0.273435
29.4079
-0.28008
29.4193
-0.286915
29.4309
-0.293904
29.4428
-0.301087
29.4548
-0.30845
29.467
-0.315991
29.4794
-0.323748
29.492
-0.33168
29.5048
-0.339846
29.5178
-0.348193
29.5311
-0.35679
29.5444
-0.365578
29.558
-0.374631
29.5718
-0.38389
29.5857
-0.393415
29.5999
-0.403191
29.6142
-0.413204
29.6287
-0.423526
29.6433
-0.434074
29.6581
-0.444962
29.673
-0.456082
29.6881
-0.467571
29.7033
-0.479301
29.7187
-0.491426
29.7341
-0.503816
29.7496
-0.516598
29.7652
-0.529689
29.7809
-0.543211
29.7963
-0.556727
29.8123
-0.571618
29.828
-0.585933
29.8429
-0.600189
29.859
-0.617185
29.8732
-0.63086
29.8904
-0.650895
29.9081
-0.667926
29.9234
-0.68316
29.9416
-0.704236
29.9545
-0.717512
29.9716
-0.741156
29.9864
-0.758254
30.0046
-0.782238
30.0155
-0.796302
30.0334
-0.824441
30.0434
-0.839336
30.0585
-0.868085
30.0747
-0.892223
30.08
-0.907008
30.0963
-0.942585
30.1022
-0.959468
30.1155
-0.993935
30.128
-1.02076
30.1385
-1.04843
30.148
-1.0782
30.1562
-1.10718
30.1629
-1.13863
30.1677
-1.17093
30.1737
-1.2049
30.1703
-1.23217
30.176
-1.27925
30.1707
-1.3057
30.1702
-1.35021
30.1678
-1.39017
30.1631
-1.43077
30.1547
-1.47162
30.1447
-1.51635
30.1314
-1.56103
30.1166
-1.60949
30.0996
-1.65898
30.0785
-1.70853
30.056
-1.76295
30.0283
-1.81563
29.9993
-1.87477
29.9644
-1.93079
29.9288
-1.9956
29.8868
-2.05681
29.8417
-2.12441
29.7919
-2.19307
29.7363
-2.2639
29.6771
-2.3398
29.6119
-2.417
29.5416
-2.49826
29.4652
-2.58231
29.3809
-2.66798
29.2927
-2.76227
29.1952
-2.85465
29.092
-2.9558
28.9789
-3.05636
28.8601
-3.16713
28.7303
-3.27631
28.5939
-3.3967
28.4471
-3.51722
28.2907
-3.64621
28.1222
-3.77692
27.9441
-3.91781
27.7558
-4.06389
27.5544
-4.21577
27.3412
-4.37471
27.1154
-4.54185
26.8759
-4.71437
26.6232
-4.8973
26.3543
-5.08461
26.0721
-5.28318
25.7734
-5.48883
25.4625
-5.70621
25.1344
-5.92891
24.7897
-6.15936
24.4301
-6.40403
24.0655
-6.66053
23.6492
-6.89623
23.2317
-7.16278
22.7465
-7.43428
22.29
-7.72988
21.7275
-8.01772
21.231
-8.32202
20.3808
-8.61082
19.8249
-8.97681
19.2234
-9.3096
18.3827
-9.6101
17.7227
-9.99458
16.859
-10.3195
16.0956
-10.7187
15.203
-11.0658
14.3397
-11.4811
13.4055
-11.8645
12.421
-12.2795
11.3996
-12.6921
10.346
-13.1284
9.23278
-13.5593
8.04017
-14.007
6.8479
-14.4463
5.56121
-14.8912
4.18883
-15.339
2.70338
-15.8008
1.07002
-16.2412
-0.638004
-16.653
-2.47186
-16.9642
-4.47042
-17.103
-6.38658
-17.1729
-8.74756
-17.2049
-11.2672
-17.3307
-13.9661
-17.5456
-16.846
-17.7308
-19.8893
-17.8735
-23.08
-17.9675
-26.3666
-18.0186
-29.7222
-18.0366
-33.0852
-17.9781
-36.3999
-17.8659
-39.5999
-17.7001
-42.7373
-17.4836
-45.5796
-17.2917
-48.4671
-16.9121
-50.9056
-16.5937
-53.4208
-16.289
-55.3257
-15.9462
-57.5161
-15.4869
-58.9642
-15.0192
-60.8333
-14.6549
-61.9539
-14.2235
-63.1928
-13.8042
-63.9909
-13.4037
-64.813
-13.0872
-65.4322
-12.5926
-65.9187
-12.3915
-65.801
-11.9078
-66.7518
-11.7393
-66.4253
-11.0133
-66.2854
-11.0568
-66.0553
-10.8624
-66.2783
-10.5602
-9.88059
31.6835
-0.125302
-31.6955
31.6712
-0.128362
31.6587
-0.131537
31.6461
-0.134744
31.6333
-0.13803
31.6202
-0.141389
31.6068
-0.144838
31.5933
-0.148369
31.5795
-0.151982
31.5654
-0.155687
31.5511
-0.159486
31.5365
-0.16338
31.5216
-0.167374
31.5065
-0.171468
31.4911
-0.175667
31.4753
-0.179973
31.4593
-0.184388
31.443
-0.188917
31.4264
-0.193561
31.4095
-0.198324
31.3923
-0.20321
31.3747
-0.208222
31.3569
-0.213363
31.3387
-0.218637
31.3202
-0.224047
31.3014
-0.229598
31.2823
-0.235293
31.2628
-0.241137
31.243
-0.247133
31.2229
-0.253287
31.2024
-0.259602
31.1816
-0.266083
31.1604
-0.272736
31.1389
-0.279564
31.117
-0.286574
31.0948
-0.29377
31.0722
-0.301158
31.0493
-0.308743
31.026
-0.316533
31.0023
-0.324532
30.9782
-0.332747
30.9539
-0.341185
30.9291
-0.349852
30.9039
-0.358756
30.8784
-0.367902
30.8525
-0.3773
30.8263
-0.386957
30.7997
-0.39688
30.7727
-0.407079
30.7453
-0.417561
30.7175
-0.428335
30.6894
-0.439411
30.6609
-0.450799
30.6319
-0.462505
30.6027
-0.474552
30.573
-0.486914
30.543
-0.499734
30.5125
-0.512683
30.4824
-0.526662
30.4508
-0.539981
30.4189
-0.554073
30.3891
-0.5703
30.3551
-0.583219
30.3263
-0.60212
30.2904
-0.614905
30.2532
-0.630813
30.22
-0.649937
30.1801
-0.664293
30.1512
-0.688649
30.1119
-0.701853
30.0775
-0.723833
30.0348
-0.739518
30.0064
-0.767915
29.9619
-0.779937
29.9331
-0.810594
29.8909
-0.825812
29.8472
-0.848585
29.8216
-0.881393
29.775
-0.895954
29.7474
-0.931874
29.7026
-0.949131
29.6573
-0.97546
29.6125
-1.00361
29.5657
-1.03146
29.5226
-1.06406
29.4794
-1.09545
29.4378
-1.12928
29.3912
-1.15834
29.3599
-1.20085
29.3056
-1.22491
29.2705
-1.27058
29.2203
-1.3001
29.1676
-1.33742
29.1147
-1.37786
29.0646
-1.42152
29.0119
-1.46365
28.9603
-1.50946
28.9052
-1.55433
28.8482
-1.60201
28.7938
-1.65412
28.7313
-1.70052
28.6728
-1.75709
28.6066
-1.80857
28.5456
-1.86984
28.4752
-1.92515
28.4076
-1.9892
28.3353
-2.0521
28.2613
-2.11911
28.1826
-2.18522
28.0994
-2.25654
28.014
-2.33169
27.9239
-2.40811
27.8324
-2.49082
27.7349
-2.57042
27.6287
-2.65616
27.5216
-2.7475
27.4056
-2.83979
27.2905
-2.94126
27.1594
-3.03607
27.0288
-3.14576
26.8884
-3.25624
26.7431
-3.372
26.5964
-3.49947
26.431
-3.61155
26.2624
-3.74921
26.0786
-3.88013
25.892
-4.02916
25.6887
-4.17141
25.4798
-4.33295
25.2523
-4.48685
25.0167
-4.66174
24.7605
-4.82844
24.5013
-5.02397
24.2152
-5.20271
23.9352
-5.42624
23.6141
-5.60782
23.2626
-5.80792
22.9367
-6.07815
22.5677
-6.29155
22.1901
-6.51862
21.7859
-6.75862
21.351
-6.99934
20.9179
-7.29678
20.4174
-7.51728
19.8917
-7.79627
19.3438
-8.06293
18.7299
-8.36297
18.0771
-8.65683
17.4265
-8.95952
16.6794
-9.24741
15.9706
-9.61083
15.1701
-9.91819
14.3702
-10.2659
13.5389
-10.6498
12.6551
-10.9807
11.7314
-11.3558
10.7664
-11.7271
9.75963
-12.1216
8.70364
-12.5033
7.60753
-12.9109
6.49059
-13.3294
5.33353
-13.7342
4.14009
-14.1456
2.8961
-14.5569
1.62971
-14.9749
0.325886
-15.3492
-0.982023
-15.6563
-2.28338
-15.8016
-3.65917
-15.7971
-5.07472
-15.7894
-6.5488
-15.8566
-8.10056
-15.9939
-9.67847
-16.1529
-11.2666
-16.2854
-12.8353
-16.3987
-14.3599
-16.494
-15.8088
-16.5878
-17.247
-16.5398
-18.5322
-16.5808
-19.8169
-16.4154
-20.8962
-16.4043
-22.1407
-16.0472
-23.0712
-15.9816
-24.1237
-15.5412
-24.9847
-15.4281
-25.9044
-15.0265
-26.5066
-14.8847
-27.3196
-14.2062
-28.0279
-13.9465
-28.6991
-13.5523
-29.2798
-13.2236
-29.8502
-12.8333
-30.4018
-12.5356
-30.883
-12.1114
-31.3749
-11.8996
-31.7928
-11.4899
-32.19
-11.3421
-32.4326
-10.7708
-32.8134
-10.6759
-33.1419
-10.534
-33.3906
-10.3115
-9.87295
28.1276
-0.126226
-28.1267
28.1285
-0.129236
28.1293
-0.132317
28.1301
-0.135501
28.1309
-0.138764
28.1316
-0.142104
28.1323
-0.145525
28.133
-0.149039
28.1337
-0.152646
28.1344
-0.156343
28.1351
-0.160132
28.1357
-0.164015
28.1364
-0.167995
28.137
-0.172074
28.1376
-0.176256
28.1382
-0.180543
28.1388
-0.184937
28.1393
-0.189441
28.1398
-0.194059
28.1403
-0.198794
28.1408
-0.203647
28.1412
-0.208624
28.1416
-0.213727
28.1419
-0.218959
28.1422
-0.224324
28.1424
-0.229826
28.1426
-0.235468
28.1427
-0.241254
28.1428
-0.247188
28.1428
-0.253274
28.1427
-0.259516
28.1425
-0.26592
28.1423
-0.272488
28.142
-0.279226
28.1415
-0.286139
28.141
-0.29323
28.1403
-0.300507
28.1396
-0.307973
28.1387
-0.315635
28.1376
-0.323497
28.1365
-0.331566
28.1351
-0.339848
28.1336
-0.348349
28.1319
-0.357075
28.1301
-0.366033
28.128
-0.37523
28.1257
-0.384673
28.1232
-0.394371
28.1205
-0.40433
28.1175
-0.414559
28.1142
-0.425066
28.1106
-0.43586
28.1068
-0.446948
28.1026
-0.458341
28.0981
-0.470047
28.0933
-0.482053
28.088
-0.494479
28.0825
-0.507131
28.076
-0.520184
28.0697
-0.533673
28.063
-0.54739
28.0545
-0.561829
28.0475
-0.576195
28.0366
-0.591201
28.0287
-0.60701
28.0203
-0.622462
28.0093
-0.638933
28.002
-0.656912
27.9868
-0.673502
27.9754
-0.690463
27.9626
-0.71102
27.9528
-0.729744
27.9321
-0.747176
27.9223
-0.770112
27.902
-0.7903
27.8877
-0.811564
27.8719
-0.832752
27.8447
-0.854211
27.8278
-0.879038
27.8002
-0.904286
27.7801
-0.928993
27.7592
-0.954541
27.7373
-0.98178
27.712
-1.00618
27.6858
-1.03783
27.6576
-1.06727
27.6226
-1.09426
27.5909
-1.12666
27.5483
-1.15824
27.5153
-1.19191
27.4711
-1.22634
27.4331
-1.26211
27.3956
-1.29994
27.3568
-1.33902
27.3131
-1.3778
27.2636
-1.41416
27.2154
-1.4613
27.1666
-1.5055
27.1082
-1.54361
27.0492
-1.59509
26.9929
-1.64421
26.9284
-1.69266
26.8651
-1.74523
26.7956
-1.80039
26.7276
-1.85708
26.654
-1.91565
26.5777
-1.97575
26.4957
-2.03712
26.4135
-2.10302
26.3266
-2.16968
26.2348
-2.23989
26.141
-2.31423
26.038
-2.38783
25.9371
-2.46959
25.8292
-2.54816
25.7156
-2.63393
25.5984
-2.72264
25.4701
-2.81293
25.3463
-2.91224
25.211
-3.01046
25.0703
-3.11561
24.9233
-3.22498
24.7596
-3.33576
24.6042
-3.45611
24.4324
-3.57746
24.2556
-3.70327
24.0624
-3.83599
23.8622
-3.97119
23.6445
-4.11526
23.4186
-4.26097
23.1744
-4.41747
22.9152
-4.56926
22.6309
-4.73965
22.3321
-4.90395
21.9958
-5.08994
21.671
-5.28306
21.3187
-5.45555
20.8846
-5.64404
20.4636
-5.87063
20.0273
-6.08233
19.5576
-6.28888
19.0658
-6.50757
18.5204
-6.7514
18.0058
-7.00258
17.4459
-7.23637
16.8861
-7.50318
16.2905
-7.76738
15.6918
-8.05807
15.0677
-8.33551
14.4249
-8.60461
13.7545
-8.94039
13.0797
-9.2434
12.3761
-9.56232
11.6521
-9.92578
10.9274
-10.256
10.1553
-10.5837
9.35897
-10.9308
8.53964
-11.3023
7.70743
-11.6711
6.81378
-12.0173
5.87388
-12.3895
4.9027
-12.763
3.9004
-13.1433
2.85756
-13.514
1.74493
-13.8622
0.593986
-14.1982
-0.595494
-14.4668
-1.82061
-14.5765
-3.02196
-14.5958
-4.26804
-14.5433
-5.51678
-14.6079
-6.75473
-14.7559
-7.98497
-14.9226
-9.20726
-15.0631
-10.3863
-15.2197
-11.5268
-15.3535
-12.6963
-15.4183
-13.8462
-15.3899
-15.0122
-15.4148
-16.0987
-15.3289
-17.3033
-15.1997
-18.2778
-15.0727
-19.3681
-14.8913
-20.2778
-14.6315
-21.2187
-14.4871
-22.0704
-14.1749
-23.0274
-13.9277
-23.6938
-13.5398
-24.418
-13.2223
-25.1005
-12.8699
-25.7518
-12.5723
-26.3733
-12.2118
-26.9969
-11.912
-27.5388
-11.5695
-28.1585
-11.2799
-28.6573
-10.9911
-29.2453
-10.7542
-29.5804
-10.4357
-30.0048
-10.2515
-30.4012
-10.1376
-30.7397
-9.97302
-9.86906
27.3867
-0.116537
-27.3965
27.3769
-0.119392
27.3668
-0.122329
27.3566
-0.125314
27.3462
-0.128374
27.3356
-0.131512
27.3248
-0.134729
27.3137
-0.138022
27.3024
-0.141395
27.2909
-0.144853
27.2792
-0.148401
27.2672
-0.152026
27.2549
-0.155769
27.2424
-0.159582
27.2296
-0.163477
27.2166
-0.167528
27.2032
-0.171615
27.1897
-0.175883
27.1758
-0.180172
27.1616
-0.184681
27.1472
-0.189181
27.1325
-0.193929
27.1174
-0.198653
27.1021
-0.203667
27.0864
-0.208625
27.0705
-0.213916
27.0541
-0.219121
27.0375
-0.224704
27.0205
-0.23017
27.0033
-0.236063
26.9856
-0.241803
26.9677
-0.248027
26.9493
-0.254057
26.9307
-0.260638
26.9115
-0.266971
26.8922
-0.273964
26.8723
-0.280601
26.8524
-0.28803
26.8317
-0.294972
26.8111
-0.302825
26.7897
-0.310164
26.7682
-0.3184
26.7461
-0.3262
26.7235
-0.334532
26.7009
-0.343371
26.6775
-0.351903
26.6535
-0.36065
26.6292
-0.370056
26.6045
-0.379694
26.5795
-0.389484
26.554
-0.399594
26.5286
-0.41041
26.5019
-0.42034
26.4749
-0.431317
26.4479
-0.443076
26.4197
-0.453785
26.3912
-0.466037
26.3632
-0.479082
26.3339
-0.490918
26.3036
-0.503393
26.2733
-0.516995
26.2418
-0.53037
26.2097
-0.544133
26.1782
-0.55969
26.145
-0.573785
26.1125
-0.589957
26.0798
-0.606285
26.0439
-0.620968
26.0076
-0.637185
25.9741
-0.657018
25.9359
-0.672784
25.8961
-0.68998
25.8614
-0.712442
25.8218
-0.730473
25.7808
-0.749308
25.7391
-0.769913
25.6981
-0.791766
25.6587
-0.814795
25.6194
-0.839723
25.5749
-0.859761
25.5282
-0.882338
25.4837
-0.910001
25.436
-0.934076
25.3957
-0.965894
25.346
-0.988147
25.2967
-1.018
25.2491
-1.04661
25.2009
-1.07844
25.1511
-1.10849
25.097
-1.13779
25.0476
-1.17691
24.9933
-1.20782
24.9338
-1.24048
24.8752
-1.28036
24.8206
-1.32322
24.7697
-1.36327
24.7119
-1.40348
24.6446
-1.43821
24.5954
-1.4944
24.5276
-1.52731
24.459
-1.57561
24.3884
-1.62212
24.3148
-1.6716
24.2477
-1.73332
24.1689
-1.7782
24.0989
-1.84568
24.0212
-1.89803
23.9427
-1.95864
23.8602
-2.02048
23.771
-2.08056
23.6901
-2.15898
23.5984
-2.22245
23.5056
-2.29506
23.4013
-2.3653
23.3031
-2.45001
23.2112
-2.54202
23.1026
-2.61399
22.9972
-2.70756
22.8802
-2.79519
22.756
-2.88632
22.6226
-2.98212
22.492
-3.09446
22.3523
-3.19597
22.192
-3.29588
22.0387
-3.4241
21.8705
-3.5351
21.6866
-3.65205
21.4926
-3.77718
21.2836
-3.90633
21.074
-4.05134
20.8386
-4.18205
20.5992
-4.32986
20.3436
-4.48405
20.0753
-4.63566
19.7921
-4.80672
19.4911
-4.9821
19.1763
-5.14073
18.8569
-5.32458
18.5193
-5.53311
18.1552
-5.71815
17.7691
-5.9028
17.3984
-6.13686
17.0068
-6.35984
16.5794
-6.5752
16.1282
-6.78515
15.6676
-7.04257
15.1832
-7.28298
14.6887
-7.56351
14.1794
-7.82622
13.6552
-8.08044
13.0742
-8.35934
12.4779
-8.64718
11.858
-8.94242
11.2048
-9.27255
10.5324
-9.58363
9.84096
-9.89218
9.11099
-10.2008
8.33775
-10.529
7.5344
-10.8678
6.72492
-11.2078
5.87694
-11.5415
4.99392
-11.88
4.07633
-12.2257
3.12454
-12.5622
2.15088
-12.8886
1.1381
-13.1855
0.0989288
-13.4277
-0.939589
-13.538
-2.03373
-13.5016
-3.15514
-13.4219
-4.35156
-13.4114
-5.60946
-13.498
-6.89035
-13.6418
-8.15696
-13.7965
-9.4354
-13.9413
-10.7295
-14.0593
-11.9668
-14.181
-13.1868
-14.1699
-14.3609
-14.2408
-15.5344
-14.1553
-16.6459
-14.0882
-17.7067
-14.0119
-18.7123
-13.8857
-19.609
-13.7348
-20.5316
-13.5645
-21.3827
-13.3238
-22.2141
-13.0963
-22.9343
-12.8196
-23.6354
-12.5212
-24.2719
-12.2334
-24.9036
-11.9405
-25.4787
-11.6367
-26.0379
-11.3528
-26.5551
-11.0523
-27.0455
-10.7896
-27.5014
-10.5352
-27.9613
-10.2943
-28.3486
-10.0484
-28.6918
-9.90831
-29.0641
-9.76534
-29.435
-9.60206
-9.56853
25.0022
-0.114059
-25.0046
24.9996
-0.116803
24.9969
-0.119613
24.9941
-0.122515
24.9913
-0.125489
24.9883
-0.128538
24.9852
-0.131663
24.9821
-0.134865
24.9789
-0.138151
24.9756
-0.141522
24.9721
-0.144978
24.9687
-0.148528
24.965
-0.152146
24.9613
-0.155886
24.9576
-0.15972
24.9537
-0.163615
24.9497
-0.167655
24.9456
-0.171744
24.9414
-0.176
24.937
-0.180283
24.9326
-0.18477
24.928
-0.189276
24.9233
-0.194003
24.9184
-0.198728
24.9135
-0.203712
24.9082
-0.208674
24.903
-0.213928
24.8975
-0.219143
24.892
-0.224681
24.8861
-0.230161
24.8803
-0.235999
24.874
-0.241759
24.8679
-0.247914
24.8612
-0.253964
24.8547
-0.26046
24.8475
-0.26678
24.8406
-0.273661
24.8328
-0.280261
24.8254
-0.28756
24.817
-0.294476
24.809
-0.302173
24.8001
-0.309504
24.7915
-0.317572
24.7826
-0.325615
24.7729
-0.333638
24.7633
-0.342353
24.7538
-0.351168
24.7437
-0.359958
24.7331
-0.369041
24.7221
-0.378475
24.7107
-0.388212
24.6981
-0.3978
24.6863
-0.408591
24.6739
-0.418918
24.6604
-0.429587
24.6479
-0.441237
24.634
-0.452159
24.6183
-0.463409
24.6037
-0.476266
24.5891
-0.488844
24.5736
-0.50144
24.5578
-0.514545
24.5417
-0.528052
24.5235
-0.541549
24.506
-0.556224
24.4869
-0.570881
24.4666
-0.58594
24.447
-0.601416
24.4275
-0.617642
24.4045
-0.634043
24.3829
-0.651227
24.3624
-0.669488
24.3374
-0.687407
24.3118
-0.704841
24.2872
-0.724685
24.2626
-0.745354
24.2365
-0.765636
24.207
-0.785321
24.1729
-0.805652
24.1441
-0.830906
24.1154
-0.853683
24.0801
-0.874653
24.046
-0.899967
24.006
-0.925937
23.9706
-0.952724
23.9298
-0.97719
23.8899
-1.00679
23.8476
-1.03611
23.8041
-1.06493
23.7609
-1.0946
23.7095
-1.12551
23.662
-1.16032
23.6152
-1.19375
23.5631
-1.22817
23.5023
-1.26243
23.4405
-1.30147
23.3768
-1.33986
23.3222
-1.38361
23.25
-1.42212
23.1894
-1.4667
23.126
-1.5123
23.0626
-1.55864
22.9927
-1.60178
22.9096
-1.65019
22.8361
-1.70465
22.7465
-1.75615
22.6621
-1.81362
22.5745
-1.87105
22.4864
-1.93235
22.3944
-1.98862
22.2853
-2.04984
22.1836
-2.12076
22.0763
-2.18772
21.9661
-2.25509
21.8407
-2.32467
21.7057
-2.40695
21.581
-2.4893
21.4442
-2.5708
21.3045
-2.65549
21.1602
-2.74201
20.9991
-2.82106
20.8306
-2.92592
20.6621
-3.02745
20.4896
-3.12343
20.2964
-3.23089
20.1035
-3.34215
19.9032
-3.4518
19.6974
-3.57136
19.4782
-3.68717
19.2517
-3.82486
19.0189
-3.94925
18.7721
-4.08307
18.5101
-4.22204
18.2473
-4.37281
17.9641
-4.52359
17.6647
-4.68261
17.3733
-4.84938
17.0462
-4.99751
16.7093
-5.19616
16.3779
-5.38679
16.0439
-5.56879
15.6636
-5.75657
15.2724
-5.96857
14.8824
-6.18526
14.5025
-6.40525
14.0924
-6.63249
13.6641
-6.85467
13.1859
-7.08532
12.7002
-7.34045
12.2196
-7.59987
11.7193
-7.85899
11.2013
-8.12925
10.6636
-8.40471
10.0753
-8.68422
9.4713
-8.97963
8.85492
-9.2758
8.22921
-9.57511
7.57527
-9.8751
6.89156
-10.1841
6.17717
-10.4934
5.44182
-10.8061
4.67865
-11.1168
3.87991
-11.427
3.05247
-11.7348
2.19779
-12.0339
1.30907
-12.2967
0.387974
-12.5066
-0.562638
-12.5874
-1.51538
-12.5489
-2.50075
-12.4365
-3.5126
-12.3996
-4.52839
-12.4822
-5.52966
-12.6405
-6.52714
-12.799
-7.5412
-12.9272
-8.5524
-13.0481
-9.61166
-13.1217
-10.6976
-13.0839
-11.7722
-13.1662
-12.8044
-13.1231
-13.7915
-13.1011
-14.8005
-13.0029
-15.7754
-12.9108
-16.7412
-12.7691
-17.6866
-12.6191
-18.5899
-12.4205
-19.4644
-12.2218
-20.2938
-11.9902
-21.0633
-11.7517
-21.808
-11.4888
-22.5112
-11.2374
-23.1818
-10.9661
-23.8212
-10.7135
-24.4244
-10.4491
-25.0013
-10.2127
-25.5463
-9.99016
-26.0646
-9.77598
-26.5321
-9.58091
-26.9839
-9.45656
-27.4102
-9.33903
-27.7641
-9.24815
-9.30718
23.8864
-0.106633
-23.894
23.8788
-0.109239
23.8711
-0.111906
23.8632
-0.114649
23.8552
-0.117462
23.8469
-0.120342
23.8386
-0.123294
23.83
-0.126321
23.8212
-0.129425
23.8123
-0.132605
23.8032
-0.135866
23.7938
-0.139208
23.7843
-0.142636
23.7745
-0.146151
23.7646
-0.149756
23.7544
-0.153454
23.744
-0.157246
23.7333
-0.161135
23.7225
-0.165125
23.7114
-0.169217
23.7
-0.173414
23.6885
-0.17772
23.6766
-0.182138
23.6645
-0.18667
23.6521
-0.191319
23.6395
-0.19609
23.6266
-0.200984
23.6135
-0.206007
23.5999
-0.211161
23.5862
-0.21645
23.5721
-0.221878
23.5578
-0.227449
23.543
-0.233166
23.5281
-0.239035
23.5127
-0.24506
23.4972
-0.251244
23.4811
-0.257594
23.465
-0.264112
23.4482
-0.270806
23.4314
-0.277678
23.414
-0.284736
23.3964
-0.291985
23.3783
-0.299429
23.3598
-0.307078
23.3411
-0.31493
23.3217
-0.322999
23.3018
-0.33129
23.2817
-0.339807
23.2612
-0.34856
23.2403
-0.357554
23.2189
-0.366799
23.1974
-0.376299
23.1748
-0.386061
23.152
-0.396103
23.1289
-0.406425
23.1047
-0.417039
23.0804
-0.427951
23.0562
-0.439173
23.0307
-0.45072
23.0044
-0.462593
22.9778
-0.474807
22.9506
-0.487375
22.9229
-0.5003
22.8949
-0.51363
22.866
-0.527292
22.8365
-0.541395
22.8065
-0.555947
22.7759
-0.570745
22.7448
-0.586609
22.7125
-0.601713
22.6807
-0.619378
22.6466
-0.635466
22.6119
-0.652683
22.5769
-0.669826
22.5423
-0.690115
22.5051
-0.708171
22.467
-0.727496
22.4288
-0.747124
22.3935
-0.770326
22.3531
-0.790573
22.3116
-0.812149
22.2717
-0.834703
22.2297
-0.858047
22.1886
-0.884762
22.1445
-0.908647
22.1003
-0.932996
22.0569
-0.963433
22.0097
-0.988852
21.9611
-1.01631
21.9161
-1.04967
21.8685
-1.07791
21.8168
-1.10857
21.7649
-1.14185
21.7116
-1.17493
21.658
-1.20877
21.602
-1.24548
21.5468
-1.28469
21.4852
-1.32199
21.4219
-1.35886
21.3613
-1.40602
21.2949
-1.44588
21.2246
-1.48843
21.1559
-1.53305
21.0912
-1.58544
21.0158
-1.62924
20.9407
-1.6811
20.8571
-1.73
20.7753
-1.78921
20.6857
-1.84281
20.5957
-1.89855
20.5077
-1.96189
20.4092
-2.02227
20.3084
-2.08689
20.2053
-2.15203
20.0962
-2.21554
19.987
-2.29776
19.8662
-2.36854
19.7404
-2.44493
19.6068
-2.52189
19.4671
-2.60233
19.3309
-2.68491
19.1887
-2.78366
19.0319
-2.87066
18.8789
-2.97043
18.716
-3.06804
18.5399
-3.16603
18.3575
-3.26938
18.1772
-3.39109
17.9873
-3.49728
17.7914
-3.62891
17.5917
-3.74959
17.3805
-3.87178
17.1553
-3.99691
16.9252
-4.14267
16.6955
-4.29391
16.45
-4.43713
16.188
-4.5874
15.931
-4.7405
15.6522
-4.9173
15.3547
-5.08933
15.0484
-5.26244
14.736
-5.44421
14.4063
-5.63882
14.0558
-5.83477
13.6869
-6.0364
13.3034
-6.24899
12.9178
-6.469
12.5232
-6.69073
12.1025
-6.91981
11.659
-7.15633
11.2002
-7.40019
10.7194
-7.64847
10.2215
-7.90681
9.70836
-8.17106
9.16594
-8.43721
8.60044
-8.7103
8.01248
-8.98716
7.40577
-9.26839
6.77338
-9.55167
6.11887
-9.83886
5.43855
-10.1258
4.73563
-10.4139
4.00857
-10.6999
3.25745
-10.9837
2.47497
-11.2514
1.66383
-11.4856
0.818602
-11.6613
-0.0471338
-11.7216
-0.942616
-11.6534
-1.86855
-11.5106
-2.85868
-11.4095
-3.90407
-11.4368
-4.99267
-11.5519
-6.09742
-11.6943
-7.18839
-11.8362
-8.25987
-11.9767
-9.35432
-12.0273
-10.3944
-12.0438
-11.4457
-12.1149
-12.4489
-12.12
-13.4422
-12.1078
-14.3822
-12.0628
-15.307
-11.9861
-16.1849
-11.8911
-17.0451
-11.7589
-17.8578
-11.6078
-18.651
-11.4286
-19.4047
-11.2365
-20.1298
-11.0266
-20.8144
-10.8041
-21.4721
-10.5797
-22.095
-10.3432
-22.689
-10.1194
-23.2515
-9.88655
-23.7892
-9.67502
-24.3077
-9.47164
-24.8005
-9.28321
-25.2595
-9.12194
-25.7063
-9.00976
-26.1389
-8.90642
-26.5485
-8.83853
-8.91195
22.1919
-0.102768
-22.1957
22.1879
-0.105277
22.1839
-0.107843
22.1797
-0.110463
22.1754
-0.113152
22.171
-0.115912
22.1665
-0.118742
22.1618
-0.121642
22.157
-0.124615
22.1521
-0.127662
22.147
-0.130787
22.1418
-0.133993
22.1365
-0.13728
22.131
-0.140651
22.1254
-0.144107
22.1196
-0.147652
22.1137
-0.151287
22.1076
-0.155015
22.1013
-0.158838
22.0948
-0.162759
22.0882
-0.166781
22.0814
-0.170906
22.0744
-0.175138
22.0672
-0.179479
22.0598
-0.183932
22.0523
-0.1885
22.0445
-0.193187
22.0365
-0.197995
22.0282
-0.202929
22.0198
-0.207992
22.0111
-0.213187
22.0022
-0.218518
21.993
-0.223989
21.9835
-0.229604
21.9739
-0.235367
21.9639
-0.241283
21.9537
-0.247356
21.9431
-0.25359
21.9323
-0.259991
21.9212
-0.266562
21.9098
-0.27331
21.898
-0.280239
21.886
-0.287355
21.8735
-0.294664
21.8608
-0.30217
21.8477
-0.309881
21.8342
-0.317801
21.8203
-0.325939
21.8061
-0.3343
21.7914
-0.342891
21.7763
-0.351719
21.7608
-0.360791
21.7449
-0.370116
21.7285
-0.379701
21.7116
-0.389555
21.6942
-0.399684
21.6764
-0.410099
21.658
-0.420809
21.6391
-0.431822
21.6197
-0.443149
21.5997
-0.4548
21.5791
-0.466785
21.5579
-0.479114
21.5361
-0.491802
21.5136
-0.504854
21.4905
-0.51829
21.4667
-0.532117
21.4423
-0.546347
21.4167
-0.561011
21.3911
-0.576085
21.3633
-0.591611
21.3355
-0.60764
21.3069
-0.624122
21.2782
-0.64108
21.2466
-0.658569
21.2151
-0.67662
21.1828
-0.69518
21.15
-0.714324
21.1137
-0.734019
21.0774
-0.754343
21.0409
-0.775613
21.0035
-0.797335
20.9652
-0.819698
20.9231
-0.842726
20.8812
-0.866699
20.8396
-0.89144
20.7932
-0.916966
20.7476
-0.943302
20.7016
-0.97026
20.6503
-0.998378
20.5998
-1.0274
20.5483
-1.05713
20.4943
-1.08778
20.4389
-1.11959
20.3828
-1.15265
20.324
-1.18665
20.2607
-1.22142
20.1965
-1.25778
20.133
-1.29541
20.0612
-1.33417
19.9896
-1.37429
19.9166
-1.41542
19.842
-1.45847
19.7598
-1.50323
19.6795
-1.54892
19.5942
-1.59578
19.5099
-1.64568
19.4172
-1.69656
19.323
-1.74864
19.2279
-1.80344
19.1265
-1.86045
19.023
-1.91882
18.9149
-1.97878
18.8049
-2.04205
18.6965
-2.10706
18.5731
-2.17443
18.4494
-2.24485
18.3219
-2.31743
18.1922
-2.39219
18.06
-2.47005
17.9281
-2.553
17.7802
-2.63582
17.6313
-2.72179
17.4741
-2.81317
17.3123
-2.90629
17.1488
-3.00251
16.9837
-3.10423
16.8041
-3.21157
16.6243
-3.31747
16.4227
-3.42725
16.219
-3.54588
16.0145
-3.66735
15.8085
-3.7909
15.5896
-3.92379
15.352
-4.05628
15.1104
-4.19554
14.8648
-4.34176
14.618
-4.49373
14.3477
-4.64694
14.0678
-4.80944
13.783
-4.97767
13.4901
-5.15128
13.1803
-5.32901
12.8606
-5.51513
12.5325
-5.70829
12.1879
-5.90438
11.8256
-6.1067
11.4514
-6.31656
11.0644
-6.53273
10.6626
-6.75456
10.2452
-6.98277
9.81484
-7.21813
9.36555
-7.45752
8.89642
-7.70192
8.4128
-7.95359
7.91096
-8.20845
7.39144
-8.46764
6.85204
-8.72899
6.29442
-8.99405
5.71517
-9.2596
5.11678
-9.52744
4.49564
-9.79273
3.85506
-10.0594
3.18806
-10.3167
2.4992
-10.5626
1.77862
-10.765
1.02777
-10.9105
0.249214
-10.9431
-0.538781
-10.8654
-1.34783
-10.7016
-2.18906
-10.5682
-3.05559
-10.5703
-3.92347
-10.684
-4.81741
-10.8004
-5.7328
-10.9208
-6.717
-10.9925
-7.66555
-11.0787
-8.57571
-11.1336
-9.5138
-11.1768
-10.4493
-11.1845
-11.379
-11.1781
-12.31
-11.1319
-13.2211
-11.0749
-14.1294
-10.9829
-15.0126
-10.8757
-15.8777
-10.7427
-16.7127
-10.5935
-17.5218
-10.4274
-18.3028
-10.2455
-19.0496
-10.0574
-19.7697
-9.85957
-20.4517
-9.66127
-21.1066
-9.4645
-21.7268
-9.26636
-22.3198
-9.08206
-22.8879
-8.90349
-23.4286
-8.74253
-23.9396
-8.61093
-24.4314
-8.51794
-24.9021
-8.43581
-25.3169
-8.42372
-8.48216
21.0273
-0.0963299
-21.0337
21.0207
-0.0986976
21.014
-0.10112
21.0072
-0.103606
21.0002
-0.106156
20.9931
-0.10877
20.9858
-0.111449
20.9784
-0.114197
20.9708
-0.117015
20.963
-0.119904
20.9551
-0.122867
20.9471
-0.125905
20.9388
-0.129019
20.9304
-0.132213
20.9218
-0.13549
20.913
-0.13885
20.904
-0.142298
20.8948
-0.145834
20.8855
-0.149461
20.8759
-0.153183
20.8661
-0.157001
20.8561
-0.160919
20.8459
-0.164938
20.8355
-0.169062
20.8249
-0.173294
20.814
-0.177637
20.8029
-0.182093
20.7916
-0.186667
20.78
-0.191361
20.7682
-0.196178
20.7562
-0.201123
20.7439
-0.206199
20.7313
-0.211409
20.7184
-0.216757
20.7053
-0.222249
20.6919
-0.227885
20.6782
-0.233675
20.6643
-0.239617
20.65
-0.245721
20.6354
-0.251988
20.6205
-0.258426
20.6053
-0.265036
20.5898
-0.271829
20.5739
-0.278803
20.5577
-0.285971
20.5412
-0.293331
20.5243
-0.300898
20.507
-0.308668
20.4894
-0.316657
20.4713
-0.324863
20.4529
-0.333301
20.4341
-0.341969
20.4149
-0.350883
20.3952
-0.360042
20.3751
-0.369464
20.3546
-0.379145
20.3336
-0.389105
20.3121
-0.399341
20.2902
-0.409874
20.2677
-0.420702
20.2448
-0.431845
20.2213
-0.443303
20.1973
-0.455095
20.1727
-0.467225
20.1475
-0.47971
20.1218
-0.492556
20.0955
-0.505781
20.0685
-0.519391
20.0409
-0.533405
20.0127
-0.547831
19.9837
-0.562686
19.9541
-0.577985
19.9237
-0.593741
19.8926
-0.60997
19.8607
-0.626688
19.828
-0.643915
19.7945
-0.661669
19.7601
-0.67995
19.7249
-0.698804
19.6888
-0.718258
19.6515
-0.738253
19.613
-0.758912
19.5736
-0.780269
19.5331
-0.802225
19.4913
-0.82485
19.4481
-0.848294
19.4036
-0.872486
19.3577
-0.897361
19.3105
-0.923055
19.2617
-0.949633
19.2115
-0.977111
19.1597
-1.0054
19.1066
-1.03463
19.0519
-1.06488
18.9954
-1.09618
18.9371
-1.12837
18.8774
-1.16172
18.8159
-1.19625
18.7523
-1.23184
18.6868
-1.26868
18.6194
-1.30685
18.5501
-1.34617
18.4786
-1.38698
18.4047
-1.42932
18.3285
-1.4727
18.2506
-1.51788
18.1699
-1.56492
18.0863
-1.61303
18.0007
-1.663
17.9124
-1.71512
17.8208
-1.76884
17.7261
-1.82413
17.6292
-1.88185
17.529
-1.9419
17.4254
-2.00342
17.3182
-2.06723
17.2075
-2.13413
17.0932
-2.20315
16.9749
-2.27387
16.8532
-2.34836
16.7255
-2.42532
16.5937
-2.50408
16.4585
-2.58653
16.3183
-2.67302
16.1734
-2.76133
16.0236
-2.85271
15.868
-2.94863
15.7035
-3.04708
15.5352
-3.14917
15.3636
-3.25568
15.1839
-3.36619
14.9972
-3.48063
14.8059
-3.59955
14.6039
-3.72177
14.3978
-3.85027
14.1855
-3.98316
13.9633
-4.11962
13.7308
-4.26118
13.4926
-4.40874
13.2454
-4.56229
12.9875
-4.71972
12.7181
-4.88187
12.4406
-5.05151
12.1515
-5.22607
11.8481
-5.40484
11.5345
-5.59085
11.2106
-5.78274
10.8732
-5.97918
10.5222
-6.18173
10.1581
-6.39045
9.77991
-6.6046
9.3852
-6.82342
8.97604
-7.04837
8.55242
-7.2783
8.11061
-7.51178
7.65189
-7.74973
7.17521
-7.99096
6.68131
-8.23508
6.16806
-8.4808
5.63679
-8.72833
5.08462
-8.97527
4.51473
-9.22284
3.92145
-9.46608
3.3088
-9.70401
2.66557
-9.91933
1.99444
-10.0939
1.28619
-10.2022
0.550986
-10.2079
-0.211114
-10.1033
-0.992278
-9.92039
-1.82322
-9.7373
-2.70289
-9.69062
-3.63145
-9.75544
-4.54854
-9.88327
-5.4909
-9.97849
-6.43585
-10.0475
-7.35844
-10.1561
-8.28369
-10.2084
-9.1913
-10.2692
-10.09
-10.2857
-10.9747
-10.2934
-11.838
-10.2686
-12.6897
-10.2231
-13.5168
-10.1558
-14.3282
-10.0644
-15.1169
-9.95397
-15.8856
-9.82487
-16.633
-9.68
-17.3545
-9.52411
-18.0552
-9.35667
-18.729
-9.18572
-19.3817
-9.0086
-20.0095
-8.83671
-20.6134
-8.66239
-21.1968
-8.49874
-21.7566
-8.34364
-22.2926
-8.20658
-22.8028
-8.10073
-23.2978
-8.02293
-23.7737
-7.95985
-24.2274
-7.97003
-8.01403
19.6471
-0.091825
-19.6516
19.6424
-0.0940775
19.6377
-0.0963855
19.6328
-0.0987485
19.6279
-0.101173
19.6227
-0.103659
19.6175
-0.106208
19.6121
-0.108822
19.6066
-0.111501
19.6009
-0.114249
19.5951
-0.117066
19.5892
-0.119955
19.583
-0.122919
19.5768
-0.125958
19.5704
-0.129076
19.5638
-0.132273
19.557
-0.135553
19.5501
-0.138917
19.543
-0.142367
19.5357
-0.145907
19.5283
-0.149539
19.5206
-0.153264
19.5127
-0.157087
19.5047
-0.161009
19.4964
-0.165033
19.4879
-0.169162
19.4793
-0.173399
19.4703
-0.177748
19.4612
-0.18221
19.4518
-0.18679
19.4422
-0.191491
19.4323
-0.196316
19.4221
-0.201268
19.4117
-0.206353
19.4011
-0.211572
19.3901
-0.216931
19.3789
-0.222431
19.3673
-0.228081
19.3555
-0.233881
19.3433
-0.239838
19.3309
-0.245954
19.3181
-0.252237
19.3049
-0.25869
19.2914
-0.265319
19.2776
-0.272127
19.2634
-0.279123
19.2488
-0.28631
19.2338
-0.293695
19.2184
-0.301282
19.2027
-0.309081
19.1865
-0.317095
19.1698
-0.325332
19.1527
-0.333798
19.1352
-0.342502
19.1172
-0.351448
19.0987
-0.360648
19.0797
-0.370105
19.0602
-0.379832
19.0401
-0.389832
19.0195
-0.40012
18.9984
-0.4107
18.9767
-0.421585
18.9544
-0.432782
18.9315
-0.444303
18.9079
-0.456158
18.8837
-0.468359
18.8588
-0.480915
18.8333