/*--------------------------------*- C++ -*----------------------------------*\
  =========                 |
  \\      /  F ield         | OpenFOAM: The Open Source CFD Toolbox
   \\    /   O peration     | Website:  https://openfoam.org
    \\  /    A nd           | Version:  7
     \\/     M anipulation  |
\*---------------------------------------------------------------------------*/
FoamFile
{
    version     2.0;
    format      ascii;
    class       volVectorField;
    location    "0.9975";
    object      wallShearStress;
}
// * * * * * * * * * * * * * * * * * * * * * * * * * * * * * * * * * * * * * //

dimensions      [0 2 -2 0 0 0 0];

internalField   uniform (0 0 0);

boundaryField
{
    frontAndBack
    {
        type            empty;
    }
    farfield
    {
        type            calculated;
        value           uniform (0 0 0);
    }
    airfoil
    {
        type            calculated;
        value           nonuniform List<vector> 
341
(
(-15.1634 -0.377987 -3.32187e-23)
(-16.4204 -0.418289 -1.78543e-22)
(-15.7152 -0.27156 -4.99862e-18)
(-15.1327 -0.157022 2.23344e-37)
(-14.883 -0.115142 -7.23451e-22)
(-14.7807 -0.0753899 6.85618e-22)
(-14.6228 -0.0309341 3.54842e-19)
(-14.4014 0.0217836 1.47549e-18)
(-14.1157 0.072028 3.13978e-18)
(-13.9038 0.113264 1.11732e-23)
(-13.6975 0.151176 -3.20743e-18)
(-13.5059 0.186228 -3.24065e-18)
(-13.3199 0.218607 3.2793e-18)
(-13.144 0.250256 3.32259e-21)
(-12.9521 0.280478 -1.67033e-21)
(-12.7652 0.307873 1.70628e-21)
(-12.5978 0.333316 7.03113e-18)
(-12.4318 0.356441 -1.74588e-21)
(-12.2806 0.378502 -7.28054e-18)
(-12.1099 0.400557 5.64237e-37)
(-11.9452 0.420666 4.7001e-34)
(-11.7812 0.438834 -7.58449e-18)
(-11.6267 0.455376 -7.67071e-18)
(-11.4809 0.470582 3.80822e-21)
(-11.3395 0.485723 -3.86545e-21)
(-11.1856 0.500519 1.6082e-17)
(-11.0309 0.513389 4.1384e-21)
(-10.8885 0.525379 -1.64566e-17)
(-10.7485 0.535925 4.0821e-21)
(-10.6234 0.545937 -4.10105e-21)
(-10.491 0.555918 4.20819e-21)
(-10.3525 0.565446 -3.4727e-17)
(-10.2152 0.573714 -4.10053e-21)
(-10.086 0.581196 4.32222e-21)
(-9.96244 0.587854 -1.79825e-17)
(-9.84393 0.593777 -4.63987e-21)
(-9.72952 0.60006 4.32582e-36)
(-9.60381 0.606083 1.86558e-17)
(-9.47932 0.610973 -3.77434e-17)
(-9.35994 0.615283 2.1863e-22)
(-9.24507 0.618845 8.30963e-34)
(-9.13597 0.621979 4.79552e-21)
(-9.03418 0.625216 -1.97667e-17)
(-8.92391 0.628768 -4.85524e-21)
(-8.81129 0.631382 2.01855e-17)
(-8.70337 0.6336 -5.64237e-37)
(-8.60006 0.635325 -1.19386e-39)
(-8.50317 0.636858 -5.13113e-21)
(-8.412 0.638174 -2.1204e-17)
(-8.32188 0.640124 -5.17213e-21)
(-8.22457 0.641643 2.14956e-17)
(-8.12837 0.642585 4.35462e-17)
(-8.03465 0.643159 -1.07641e-20)
(-7.94524 0.643461 5.43804e-21)
(-7.85751 0.643458 -1.14794e-41)
(-7.77598 0.643594 5.79915e-21)
(-7.68754 0.644042 2.83545e-23)
(-7.59484 0.643651 -5.62389e-21)
(-7.50531 0.643098 -2.33935e-17)
(-7.41758 0.642044 -4.741e-17)
(-7.33379 0.64095 2.4034e-17)
(-7.25267 0.63952 -5.93384e-21)
(-7.17602 0.638591 4.85419e-17)
(-7.09249 0.637607 5.74775e-21)
(-7.00819 0.636205 -6.0228e-21)
(-6.92729 0.634634 -2.50623e-17)
(-6.85011 0.633075 5.26621e-36)
(-6.77628 0.631381 6.08153e-21)
(-6.70713 0.629861 -2.61555e-17)
(-6.63937 0.62866 6.30487e-21)
(-6.56639 0.627479 -2.60423e-17)
(-6.49281 0.62572 -2.64068e-17)
(-6.42113 0.623911 6.52426e-21)
(-6.3515 0.621822 6.64683e-21)
(-6.2838 0.619714 2.75716e-17)
(-6.21985 0.617569 2.79152e-17)
(-6.15317 0.615749 5.4627e-17)
(-6.0802 0.613357 -1.57986e-35)
(-6.00809 0.610823 9.0278e-36)
(-5.93823 0.608058 -5.70916e-17)
(-5.87158 0.60543 -2.89933e-17)
(-5.80751 0.602656 -2.94548e-17)
(-5.7475 0.600232 -2.95225e-17)
(-5.68506 0.598019 -2.39237e-34)
(-5.61937 0.595586 2.94357e-17)
(-5.55584 0.592971 -1.35417e-35)
(-5.49494 0.590485 -3.04023e-17)
(-5.43689 0.58793 7.53214e-21)
(-5.38178 0.585557 -3.1424e-17)
(-5.32866 0.583334 -1.13111e-20)
(-5.27218 0.581465 -6.14307e-17)
(-5.21383 0.579064 1.21882e-23)
(-5.1586 0.576852 -3.17908e-17)
(-5.10537 0.574407 1.17549e-37)
(-5.05542 0.572204 -3.29452e-17)
(-5.00815 0.569918 6.658e-34)
(-4.96056 0.568244 -3.90939e-21)
(-4.908 0.566167 3.25727e-17)
(-4.85705 0.564096 0)
(-4.80783 0.561768 3.38255e-17)
(-4.76185 0.559645 4.20598e-21)
(-4.71841 0.557412 -2.25695e-36)
(-4.67737 0.55578 3.39164e-17)
(-4.63182 0.554141 4.14549e-21)
(-4.58572 0.552203 -6.92644e-17)
(-4.54165 0.550302 -3.53792e-17)
(-4.5001 0.548321 -4.42001e-21)
(-4.46133 0.546544 -3.6986e-17)
(-4.42459 0.545066 4.33558e-21)
(-4.38404 0.543934 -4.31048e-21)
(-4.34222 0.542314 4.53667e-35)
(-4.3039 0.540783 -6.01853e-36)
(-4.26863 0.539256 7.61326e-17)
(-4.23858 0.538109 9.50647e-21)
(-4.21119 0.537906 -4.3948e-21)
(-4.18235 0.538008 -3.70561e-17)
(-4.16059 0.538596 3.81364e-17)
(-4.14457 0.539507 -4.79981e-21)
(-4.13754 0.541208 -4.05065e-17)
(-4.13391 0.543566 3.77384e-17)
(-4.124 0.546091 -4.59676e-21)
(-4.0976 0.546007 -3.94447e-17)
(-4.07747 0.54629 4.09223e-17)
(-4.0573 0.545995 4.19897e-17)
(-4.07271 0.551536 2.31734e-21)
(-4.07716 0.556053 -3.97287e-17)
(-4.10913 0.56377 2.54056e-21)
(-4.10113 0.565011 -4.37545e-17)
(-4.13005 0.572323 7.73599e-17)
(-4.11958 0.575094 4.07023e-17)
(-4.21059 0.590998 -2.65669e-21)
(-4.22163 0.594632 -8.3616e-17)
(-4.33975 0.615414 1.22892e-21)
(-4.33056 0.617414 -2.7303e-21)
(-4.54783 0.651061 1.23753e-21)
(-4.64444 0.670134 7.17465e-43)
(-5.17172 0.749449 1.23844e-21)
(-6.36057 1.32119 4.71342e-17)
(-29.7402 -101.732 1.23935e-16)
(-52.3574 -60.7472 8.8675e-17)
(-43.1935 -31.2698 -5.20218e-17)
(-33.4571 -18.017 3.9797e-17)
(-28.4826 -12.3785 2.341e-17)
(-27.3284 -10.0425 -1.78278e-22)
(-27.0619 -8.567 3.26016e-39)
(-27.7142 -7.75759 5.26621e-36)
(-26.9778 -6.75008 -3.50392e-17)
(-26.3631 -5.93141 4.97281e-34)
(-25.5377 -5.22442 1.3064e-33)
(-24.3219 -4.50509 2.16047e-17)
(-23.7943 -4.03353 2.34365e-17)
(-23.048 -3.57639 7.22402e-22)
(-22.3862 -3.1823 -2.45792e-17)
(-21.8362 -2.84612 8.4253e-22)
(-21.3755 -2.56337 -5.47103e-17)
(-20.7219 -2.2781 -2.7998e-17)
(-20.4325 -2.06386 9.1271e-22)
(-19.7965 -1.82744 -1.542e-17)
(-19.5107 -1.65452 -1.56199e-17)
(-19.066 -1.47362 1.62643e-17)
(-18.7069 -1.31706 -1.03111e-21)
(-18.3758 -1.17808 5.32972e-22)
(-18.0576 -1.04436 1.75085e-17)
(-17.6779 -0.907226 -8.94984e-18)
(-17.1514 -0.75685 1.71055e-17)
(-16.918 -0.676627 4.21502e-23)
(-16.8338 -0.635777 -4.95776e-34)
(-17.2419 -0.576722 -9.52729e-18)
(-15.1792 -0.218788 5.01622e-23)
(26.306 -89.7043 2.03044e-16)
(6.66837 -7.2995 -6.38339e-16)
(-26.5169 19.5503 -3.6545e-20)
(-26.4302 14.5451 -6.1009e-16)
(-25.6176 11.4366 -1.58951e-21)
(-22.8406 8.58187 -1.2801e-16)
(-21.1474 6.90869 -1.18889e-16)
(-19.2444 5.52639 1.15972e-16)
(-17.9833 4.61492 1.10659e-16)
(-16.7068 3.85142 5.07644e-23)
(-15.788 3.30123 -5.36054e-17)
(-14.7967 2.8083 -5.07103e-17)
(-14.113 2.44476 7.7534e-22)
(-13.383 2.1225 -1.01834e-16)
(-12.8619 1.86782 -1.49334e-21)
(-12.2548 1.63072 1.58321e-21)
(-11.9133 1.45751 5.0022e-17)
(-11.3977 1.27774 4.86841e-17)
(-11.1352 1.14372 -1.55134e-21)
(-10.7541 1.01343 2.5094e-17)
(-10.5252 0.907113 1.50887e-21)
(-10.2611 0.806429 1.52004e-21)
(-10.0383 0.718052 2.55149e-17)
(-9.89616 0.643058 -7.67157e-22)
(-9.70977 0.569756 2.49181e-17)
(-9.64234 0.500389 7.57487e-22)
(-9.29484 0.414159 -1.16677e-17)
(-9.372 0.378507 -1.19581e-17)
(-9.2292 0.349599 -1.37968e-17)
(-10.8185 0.361366 -1.23026e-17)
(-8.62372 0.132442 -2.49901e-22)
(-8.10417 0.200315 -1.43493e-42)
(-9.97525 0.252025 0)
(-9.80902 0.171442 0)
(-9.71 0.101228 1.43719e-34)
(-9.78526 0.0737966 -4.22042e-35)
(-10.0873 0.0496105 -8.23191e-22)
(-10.3138 0.0205555 -6.80894e-25)
(-10.5293 -0.0161886 8.27128e-22)
(-10.5814 -0.0548505 -1.7936e-18)
(-10.623 -0.0885034 -8.94781e-25)
(-10.625 -0.119004 8.76325e-22)
(-10.6031 -0.147951 2.93874e-38)
(-10.5675 -0.176253 -3.60371e-18)
(-10.5187 -0.202214 -3.67182e-18)
(-10.4435 -0.22861 -1.10931e-34)
(-10.3857 -0.2536 -7.42365e-18)
(-10.3299 -0.276492 -7.44571e-18)
(-10.2568 -0.297749 5.87747e-37)
(-10.2136 -0.318465 1.0072e-33)
(-10.1683 -0.339763 1.15901e-23)
(-10.0988 -0.35949 2.82119e-37)
(-10.0349 -0.378118 1.54301e-17)
(-9.97584 -0.395562 -7.75049e-18)
(-9.92771 -0.412205 -7.78051e-18)
(-9.88205 -0.42821 7.86312e-18)
(-9.83295 -0.444921 -3.29138e-37)
(-9.76991 -0.460175 -2.10072e-33)
(-9.714 -0.474641 1.73014e-33)
(-9.66019 -0.488165 -3.23122e-17)
(-9.61105 -0.50093 1.98199e-21)
(-9.5754 -0.513602 -1.63944e-17)
(-9.52668 -0.526708 -1.65546e-17)
(-9.47188 -0.538823 1.66394e-17)
(-9.41787 -0.550089 4.12787e-21)
(-9.36625 -0.56059 2.69078e-37)
(-9.32286 -0.57079 4.59064e-23)
(-9.28539 -0.580579 5.59623e-41)
(-9.24715 -0.591069 2.25695e-36)
(-9.19535 -0.600751 1.73279e-17)
(-9.14319 -0.609615 -1.74427e-17)
(-9.09579 -0.618005 -1.75792e-17)
(-9.05224 -0.625943 -1.77159e-17)
(-9.01507 -0.633669 -8.40539e-24)
(-8.98385 -0.641685 4.37464e-21)
(-8.94054 -0.649796 1.8024e-17)
(-8.89119 -0.656829 -1.81603e-17)
(-8.8466 -0.663631 1.83144e-17)
(-8.80361 -0.669904 -4.50338e-21)
(-8.76643 -0.676056 1.86313e-17)
(-8.7355 -0.682162 -9.17697e-21)
(-8.70259 -0.688618 -8.5243e-24)
(-8.66135 -0.694798 4.60685e-21)
(-8.61765 -0.700231 4.65518e-21)
(-8.57789 -0.705514 -4.7484e-21)
(-8.5392 -0.710404 1.08522e-34)
(-8.50668 -0.715386 1.95908e-17)
(-8.47686 -0.720245 -1.65021e-33)
(-8.44504 -0.725739 -1.9603e-17)
(-8.40329 -0.730359 9.15388e-24)
(-8.36396 -0.734717 1.9972e-17)
(-8.3251 -0.738658 4.93053e-21)
(-8.29156 -0.742635 2.03801e-17)
(-8.26 -0.746378 -5.03479e-21)
(-8.23398 -0.750367 2.06603e-17)
(-8.20432 -0.754864 -5.00523e-21)
(-8.16592 -0.758468 -2.07233e-17)
(-8.13022 -0.761982 2.0942e-17)
(-8.0943 -0.765084 -2.11715e-17)
(-8.06322 -0.768282 2.14115e-17)
(-8.03297 -0.771251 2.16677e-17)
(-8.00843 -0.77461 4.5139e-36)
(-7.97814 -0.778213 4.29368e-34)
(-7.942 -0.781141 -5.64237e-36)
(-7.90677 -0.78383 -2.19647e-17)
(-7.87302 -0.786311 2.22291e-17)
(-7.84207 -0.788743 2.25109e-17)
(-7.81383 -0.79117 -1.11296e-20)
(-7.78918 -0.793824 -2.26984e-17)
(-7.76065 -0.796903 2.2468e-17)
(-7.72408 -0.799054 -4.58443e-37)
(-7.69079 -0.801243 2.30436e-17)
(-7.65627 -0.80296 -2.84713e-21)
(-7.62691 -0.804915 7.9943e-34)
(-7.59762 -0.806604 -2.93258e-21)
(-7.57379 -0.808827 2.89944e-21)
(-7.54327 -0.811132 -2.35273e-17)
(-7.50804 -0.812802 2.38546e-17)
(-7.47292 -0.814211 2.95689e-21)
(-7.43953 -0.815519 -5.91543e-21)
(-7.40755 -0.816717 -6.45401e-24)
(-7.37834 -0.817965 3.08759e-21)
(-7.35169 -0.81963 2.47834e-17)
(-7.3168 -0.821189 3.01586e-21)
(-7.27835 -0.822073 -3.05646e-21)
(-7.23978 -0.822629 3.76158e-37)
(-7.20385 -0.823141 2.58977e-17)
(-7.1681 -0.823354 -2.63468e-17)
(-7.13915 -0.824057 -2.68129e-17)
(-7.10645 -0.8249 -7.7335e-24)
(-7.06676 -0.825507 -2.59737e-17)
(-7.02177 -0.825096 0)
(-6.97982 -0.824681 -3.29344e-21)
(-6.93765 -0.823847 -2.74607e-17)
(-6.89992 -0.823199 -3.42356e-21)
(-6.86399 -0.822712 3.34609e-21)
(-6.82311 -0.822668 2.06604e-33)
(-6.77026 -0.821026 1.4783e-33)
(-6.72133 -0.819504 2.81163e-17)
(-6.66901 -0.817181 -4.70198e-38)
(-6.62095 -0.815036 2.93943e-17)
(-6.57432 -0.812893 -5.82578e-17)
(-6.52139 -0.811107 2.81058e-17)
(-6.45429 -0.807509 -2.87941e-17)
(-6.38845 -0.803562 -3.61114e-21)
(-6.32064 -0.798821 -1.31538e-23)
(-6.25607 -0.793985 -3.11238e-17)
(-6.19355 -0.789394 -9.0278e-36)
(-6.11943 -0.784641 5.91362e-17)
(-6.02858 -0.777333 -3.04674e-17)
(-5.93993 -0.769671 3.14242e-17)
(-5.84632 -0.76069 -3.24457e-17)
(-5.76113 -0.752301 1.98753e-21)
(-5.66331 -0.743488 3.05737e-17)
(-5.5436 -0.731938 -3.17328e-17)
(-5.41747 -0.718788 -3.2987e-17)
(-5.28448 -0.703987 2.09078e-21)
(-5.15718 -0.689376 -3.37132e-17)
(-5.0086 -0.673547 3.21789e-17)
(-4.83135 -0.653293 3.38178e-17)
(-4.63372 -0.629295 3.56304e-17)
(-4.44918 -0.606011 -9.40395e-38)
(-4.23408 -0.580019 3.31511e-17)
(-3.99074 -0.549949 -2.17793e-21)
(-3.64941 -0.504281 2.32726e-21)
(-3.45939 -0.480009 2.20017e-21)
(-2.96236 -0.412623 -3.60943e-17)
(-2.72338 -0.381432 2.02786e-17)
(-2.21646 -0.310791 2.21214e-21)
(-1.45552 -0.205346 1.4881e-23)
(-2.00664 -0.283012 3.78804e-17)
(1.71749 -0.137754 -1.50463e-36)
)
;
    }
}


// ************************************************************************* //
