/*--------------------------------*- C++ -*----------------------------------*\
  =========                 |
  \\      /  F ield         | OpenFOAM: The Open Source CFD Toolbox
   \\    /   O peration     | Website:  https://openfoam.org
    \\  /    A nd           | Version:  7
     \\/     M anipulation  |
\*---------------------------------------------------------------------------*/
FoamFile
{
    version     2.0;
    format      ascii;
    class       volScalarField;
    location    "0";
    object      yPlus;
}
// * * * * * * * * * * * * * * * * * * * * * * * * * * * * * * * * * * * * * //

dimensions      [0 0 0 0 0 0 0];

internalField   uniform 0;

boundaryField
{
    frontAndBack
    {
        type            empty;
    }
    farfield
    {
        type            calculated;
        value           uniform 0;
    }
    airfoil
    {
        type            calculated;
        value           nonuniform List<scalar> 
341
(
0.280426
0.281565
0.282964
0.283993
0.285481
0.287432
0.289439
0.291788
0.294586
0.297444
0.300295
0.303375
0.30675
0.310031
0.313218
0.316628
0.319972
0.323252
0.326643
0.32992
0.333179
0.336397
0.339487
0.342535
0.345592
0.348517
0.351215
0.353697
0.356046
0.358404
0.360629
0.362797
0.364897
0.366742
0.368434
0.370033
0.371477
0.372838
0.374102
0.375218
0.376292
0.377307
0.378177
0.378881
0.379406
0.379769
0.380008
0.380152
0.380179
0.380011
0.379635
0.379135
0.378745
0.378525
0.378208
0.377905
0.377335
0.376536
0.37549
0.374485
0.3735
0.372545
0.371389
0.3701
0.368682
0.367294
0.365862
0.364482
0.363015
0.361484
0.359775
0.358075
0.356353
0.354736
0.353056
0.351434
0.349565
0.347587
0.345517
0.343532
0.341553
0.339683
0.337703
0.335626
0.333383
0.331203
0.329051
0.32701
0.324956
0.322934
0.320691
0.318397
0.316057
0.313819
0.311662
0.309625
0.307412
0.30511
0.302806
0.300593
0.298434
0.296358
0.294205
0.291835
0.289786
0.287623
0.285578
0.283607
0.281498
0.279419
0.277347
0.275341
0.273545
0.271734
0.26982
0.267924
0.266047
0.264402
0.262775
0.261063
0.25939
0.257757
0.256231
0.254805
0.253336
0.251795
0.250432
0.24911
0.247681
0.246242
0.244842
0.24343
0.241961
0.240329
0.238407
0.23608
0.232771
0.225369
0.151542
0.242076
0.282853
0.306769
0.321677
0.330208
0.335613
0.339291
0.340836
0.341118
0.340525
0.339094
0.337011
0.334348
0.331412
0.32811
0.324733
0.321093
0.317291
0.313496
0.309556
0.305855
0.302141
0.298698
0.29538
0.292292
0.289464
0.286865
0.284843
0.283721
0.281756
0.150602
0.238952
0.278168
0.301935
0.31807
0.328418
0.334709
0.337752
0.338848
0.339185
0.337601
0.337145
0.335
0.331517
0.328606
0.326024
0.322523
0.318317
0.314785
0.311009
0.307235
0.303987
0.300325
0.296547
0.293838
0.290976
0.288027
0.285774
0.284009
0.283271
0.281652
0.280601
0.281831
0.283229
0.284048
0.284683
0.285942
0.287313
0.288816
0.290388
0.292476
0.294387
0.296027
0.298155
0.300226
0.302262
0.304736
0.306801
0.308851
0.311078
0.31299
0.315167
0.317212
0.319566
0.321548
0.323176
0.325148
0.327022
0.328812
0.330463
0.332413
0.33401
0.335205
0.336586
0.337794
0.338952
0.34024
0.341394
0.342573
0.343602
0.344347
0.345141
0.346059
0.346706
0.346942
0.347307
0.347638
0.347924
0.348398
0.34859
0.348477
0.348511
0.348425
0.348257
0.347933
0.348035
0.348029
0.347732
0.347005
0.346005
0.345443
0.344829
0.344236
0.34356
0.343072
0.342219
0.341479
0.340705
0.339796
0.338611
0.337106
0.336069
0.334916
0.333743
0.332551
0.33134
0.330088
0.328798
0.32743
0.325917
0.324688
0.323137
0.321626
0.320228
0.318786
0.317315
0.31581
0.314236
0.312562
0.310904
0.30904
0.307539
0.305907
0.304475
0.302782
0.30086
0.299254
0.29767
0.296109
0.294475
0.292746
0.291013
0.289342
0.287721
0.286104
0.284501
0.282862
0.281184
0.279564
0.277992
0.276477
0.274979
0.273402
0.271794
0.270245
0.268769
0.267365
0.265961
0.264494
0.263024
0.261625
0.260296
0.25903
0.257686
0.256315
0.255028
0.253947
0.252781
0.251456
0.250179
0.249055
0.247944
0.246582
0.245402
0.244206
0.24294
0.241495
0.239874
0.238114
0.235793
0.23238
0.224906
)
;
    }
}


// ************************************************************************* //
