# p  FACE_DATA 341
#  x  y  z  p
0.253551 0.0594249 0.5 -1016.42
0.260625 0.059604 0.5 -1055.88
0.268301 0.0597641 0.5 -1090.49
0.275825 0.0598682 0.5 -1071.86
0.282831 0.059928 0.5 -1042.94
0.290299 0.0599719 0.5 -1030.98
0.298014 0.0599954 0.5 -1021.61
0.305661 0.0599931 0.5 -1013.93
0.313016 0.0599637 0.5 -1003.19
0.3202 0.0599102 0.5 -989.656
0.327394 0.0598346 0.5 -977.587
0.334592 0.0597382 0.5 -965.488
0.341788 0.059622 0.5 -953.258
0.348891 0.0594882 0.5 -941.847
0.355903 0.0593371 0.5 -930.746
0.362912 0.0591677 0.5 -918.48
0.369915 0.058981 0.5 -906.149
0.376908 0.0587783 0.5 -894.325
0.383848 0.0585616 0.5 -882.799
0.39071 0.0583318 0.5 -871.863
0.397536 0.0580877 0.5 -860.149
0.404349 0.0578293 0.5 -848.503
0.411146 0.0575577 0.5 -836.73
0.417921 0.0572738 0.5 -825.157
0.424635 0.05698 0.5 -814.13
0.431287 0.0566758 0.5 -803.449
0.437919 0.0563599 0.5 -792.117
0.444529 0.056033 0.5 -780.632
0.451115 0.055696 0.5 -769.311
0.457672 0.0553498 0.5 -758.227
0.464179 0.0549959 0.5 -747.815
0.47064 0.0546337 0.5 -737.297
0.477077 0.0542621 0.5 -726.386
0.483487 0.0538822 0.5 -715.389
0.489866 0.0534947 0.5 -704.597
0.496211 0.0531004 0.5 -693.992
0.50252 0.0526998 0.5 -683.747
0.508797 0.0522921 0.5 -673.694
0.515045 0.0518774 0.5 -663.212
0.52126 0.0514563 0.5 -652.719
0.52744 0.0510296 0.5 -642.292
0.533582 0.0505981 0.5 -632.021
0.539695 0.0501616 0.5 -622.022
0.545788 0.0497191 0.5 -612.4
0.551854 0.0492707 0.5 -602.451
0.557885 0.0488177 0.5 -592.401
0.563876 0.0483607 0.5 -582.34
0.569827 0.0479005 0.5 -572.417
0.575737 0.0474373 0.5 -562.696
0.58164 0.0469687 0.5 -553.278
0.587536 0.0464941 0.5 -543.882
0.593393 0.0460162 0.5 -534.249
0.599208 0.0455357 0.5 -524.582
0.60498 0.045053 0.5 -514.991
0.610706 0.0445687 0.5 -505.557
0.616408 0.0440814 0.5 -496.242
0.622117 0.043588 0.5 -487.209
0.627812 0.04309 0.5 -477.909
0.633463 0.0425903 0.5 -468.471
0.639069 0.0420895 0.5 -459.053
0.644626 0.0415881 0.5 -449.726
0.650134 0.0410868 0.5 -440.537
0.655639 0.0405812 0.5 -431.488
0.661165 0.0400689 0.5 -422.583
0.666665 0.039554 0.5 -413.419
0.672117 0.0390389 0.5 -404.198
0.677519 0.038524 0.5 -395.013
0.682868 0.0380099 0.5 -385.921
0.688165 0.037497 0.5 -376.931
0.693484 0.0369779 0.5 -368.041
0.698837 0.0364512 0.5 -359.108
0.704147 0.0359241 0.5 -349.993
0.709405 0.0353979 0.5 -340.87
0.714609 0.0348733 0.5 -331.795
0.719757 0.0343505 0.5 -322.81
0.724855 0.0338293 0.5 -313.903
0.729999 0.0332999 0.5 -305.07
0.73518 0.0327625 0.5 -296.059
0.740306 0.0322267 0.5 -286.889
0.745375 0.0316932 0.5 -277.704
0.750386 0.0311622 0.5 -268.556
0.755336 0.0306343 0.5 -259.489
0.76026 0.0301061 0.5 -250.454
0.765241 0.0295683 0.5 -241.432
0.770246 0.0290241 0.5 -232.176
0.775191 0.0284829 0.5 -222.798
0.780073 0.027945 0.5 -213.42
0.784891 0.0274108 0.5 -204.08
0.789645 0.0268807 0.5 -194.81
0.794414 0.0263459 0.5 -185.486
0.799254 0.0257999 0.5 -176.057
0.804082 0.0252514 0.5 -166.334
0.808843 0.0247071 0.5 -156.529
0.813536 0.0241673 0.5 -146.721
0.81816 0.0236326 0.5 -136.964
0.822721 0.0231023 0.5 -127.254
0.827366 0.0225594 0.5 -117.416
0.832084 0.0220045 0.5 -107.238
0.836729 0.0214548 0.5 -96.8601
0.841299 0.0209107 0.5 -86.4741
0.845793 0.0203728 0.5 -76.0972
0.85021 0.0198415 0.5 -65.784
0.854677 0.0193015 0.5 -55.2966
0.859239 0.0187469 0.5 -44.5566
0.863766 0.0181934 0.5 -33.47
0.868209 0.0176469 0.5 -22.3379
0.872568 0.017108 0.5 -11.2092
0.87684 0.0165772 0.5 -0.151236
0.881165 0.0160373 0.5 11.1825
0.885597 0.0154808 0.5 22.8841
0.889995 0.0149253 0.5 35.0286
0.894296 0.0143788 0.5 47.2329
0.8985 0.013842 0.5 59.4002
0.902612 0.0133146 0.5 71.539
0.90685 0.0127685 0.5 84.0925
0.911199 0.0122047 0.5 97.3236
0.915436 0.0116524 0.5 110.803
0.919558 0.0111121 0.5 124.252
0.923564 0.0105848 0.5 137.616
0.92766 0.0100432 0.5 151.47
0.931889 0.00948105 0.5 165.982
0.936032 0.00892713 0.5 180.966
0.940034 0.00838932 0.5 195.842
0.943918 0.00786528 0.5 210.706
0.947957 0.00731753 0.5 226.304
0.952111 0.00675118 0.5 242.983
0.956082 0.0062066 0.5 259.722
0.959868 0.005685 0.5 276.236
0.963806 0.00514008 0.5 293.705
0.967884 0.00457263 0.5 312.432
0.971729 0.00403453 0.5 331.265
0.97552 0.00350184 0.5 350.471
0.979458 0.0029459 0.5 370.994
0.983267 0.00240536 0.5 391.689
0.98706 0.00186472 0.5 415.306
0.990882 0.00131704 0.5 435.31
0.994678 0.000770466 0.5 469.935
0.99832 0.00024378 0.5 473.071
0.00133235 0.00449653 0.5 3724.86
0.00576479 0.0125392 0.5 1726.1
0.0127073 0.018847 0.5 281.507
0.0207688 0.0238748 0.5 -335.278
0.0291543 0.0279559 0.5 -649.645
0.037672 0.0313759 0.5 -860.922
0.0464094 0.0343841 0.5 -974.595
0.0551576 0.0370177 0.5 -1064.34
0.0639069 0.0393539 0.5 -1122.38
0.0727041 0.0414595 0.5 -1160
0.081414 0.0433437 0.5 -1190.49
0.090183 0.0450639 0.5 -1209.35
0.098871 0.0466203 0.5 -1224.87
0.107395 0.0480148 0.5 -1232.39
0.116087 0.049318 0.5 -1240.06
0.124618 0.0504925 0.5 -1242.49
0.132994 0.0515502 0.5 -1244.04
0.141535 0.0525408 0.5 -1245.37
0.149928 0.053435 0.5 -1245.52
0.158135 0.0542362 0.5 -1245.01
0.166435 0.0549791 0.5 -1234.74
0.174718 0.0556571 0.5 -1215.1
0.182824 0.0562624 0.5 -1189.89
0.190865 0.0568083 0.5 -1167.43
0.198976 0.0573076 0.5 -1151.69
0.20712 0.0577564 0.5 -1144.32
0.215524 0.0581602 0.5 -1136.92
0.224086 0.0585239 0.5 -1112.19
0.231971 0.0588335 0.5 -1106.54
0.239768 0.0591111 0.5 -1108.76
0.246955 0.0592927 0.5 -1152.36
0.00133235 -0.00449653 0.5 3725.5
0.00576479 -0.0125392 0.5 1735.38
0.0127073 -0.018847 0.5 273.741
0.0207688 -0.0238748 0.5 -337.544
0.0291543 -0.0279559 0.5 -652.192
0.037672 -0.0313759 0.5 -849.76
0.0464094 -0.0343841 0.5 -983.072
0.0551576 -0.0370177 0.5 -1066.06
0.0639069 -0.0393539 0.5 -1120.42
0.0727041 -0.0414595 0.5 -1161.55
0.081414 -0.0433437 0.5 -1191.23
0.090183 -0.0450639 0.5 -1211.04
0.098871 -0.0466203 0.5 -1225.34
0.107395 -0.0480148 0.5 -1233.76
0.116087 -0.049318 0.5 -1240.39
0.124618 -0.0504925 0.5 -1243.79
0.132994 -0.0515502 0.5 -1244.7
0.141535 -0.0525408 0.5 -1247.44
0.149928 -0.053435 0.5 -1247.35
0.158135 -0.0542362 0.5 -1245.68
0.166435 -0.0549791 0.5 -1230.1
0.174718 -0.0556571 0.5 -1208.4
0.182824 -0.0562624 0.5 -1183.59
0.190865 -0.0568083 0.5 -1165.36
0.198976 -0.0573076 0.5 -1151.74
0.20712 -0.0577564 0.5 -1146.26
0.215524 -0.0581602 0.5 -1138.2
0.224086 -0.0585239 0.5 -1113.89
0.231971 -0.0588335 0.5 -1107.65
0.239768 -0.0591111 0.5 -1109.4
0.246955 -0.0592927 0.5 -1153.82
0.253478 -0.0594229 0.5 -1017.5
0.260394 -0.0595984 0.5 -1056.52
0.267845 -0.0597569 0.5 -1090.25
0.275233 -0.059862 0.5 -1074.74
0.282135 -0.059923 0.5 -1044.93
0.289403 -0.0599678 0.5 -1032.87
0.296942 -0.0599937 0.5 -1023.5
0.304465 -0.0599955 0.5 -1015.05
0.311708 -0.0599711 0.5 -1006.01
0.318744 -0.0599229 0.5 -992.447
0.325783 -0.0598535 0.5 -980.207
0.332827 -0.0597638 0.5 -968.484
0.339871 -0.0596549 0.5 -956.657
0.346848 -0.0595287 0.5 -945.13
0.353736 -0.0593859 0.5 -934.049
0.360596 -0.0592257 0.5 -922.557
0.367453 -0.0590487 0.5 -910.519
0.3743 -0.0588558 0.5 -898.632
0.381124 -0.0586486 0.5 -886.928
0.38787 -0.0584289 0.5 -876.364
0.394554 -0.0581963 0.5 -865.234
0.401228 -0.0579495 0.5 -853.598
0.407888 -0.0576896 0.5 -841.992
0.41453 -0.0574175 0.5 -830.652
0.421133 -0.0571349 0.5 -819.671
0.427675 -0.0568427 0.5 -809.19
0.434175 -0.0565398 0.5 -798.292
0.440657 -0.0562259 0.5 -787.033
0.447118 -0.0559019 0.5 -776.038
0.453553 -0.0555685 0.5 -765.055
0.459952 -0.0552271 0.5 -754.314
0.466305 -0.054878 0.5 -744.265
0.472621 -0.0545205 0.5 -733.74
0.478913 -0.0541543 0.5 -723.178
0.485178 -0.0537804 0.5 -712.452
0.491413 -0.0533994 0.5 -701.877
0.497615 -0.0530121 0.5 -691.551
0.503783 -0.0526186 0.5 -681.672
0.509921 -0.0522183 0.5 -671.809
0.51603 -0.0518112 0.5 -661.525
0.522108 -0.0513982 0.5 -651.197
0.528152 -0.05098 0.5 -640.992
0.534159 -0.0505573 0.5 -630.978
0.54014 -0.0501296 0.5 -621.238
0.546102 -0.0496961 0.5 -611.887
0.552038 -0.0492571 0.5 -602.089
0.557939 -0.0488136 0.5 -592.186
0.563803 -0.0483664 0.5 -582.353
0.569628 -0.047916 0.5 -572.634
0.575412 -0.047463 0.5 -563.134
0.58119 -0.0470047 0.5 -553.947
0.586964 -0.0465405 0.5 -544.74
0.5927 -0.0460731 0.5 -535.298
0.598397 -0.0456031 0.5 -525.848
0.604052 -0.045131 0.5 -516.456
0.609664 -0.0446572 0.5 -507.208
0.615243 -0.0441814 0.5 -498.11
0.620829 -0.0436999 0.5 -489.23
0.626413 -0.0432129 0.5 -480.175
0.631955 -0.0427242 0.5 -470.949
0.637454 -0.0422343 0.5 -461.741
0.642907 -0.0417437 0.5 -452.563
0.648313 -0.041253 0.5 -443.582
0.653694 -0.0407603 0.5 -434.659
0.659096 -0.0402614 0.5 -425.956
0.664496 -0.0397577 0.5 -417.055
0.669852 -0.0392536 0.5 -408.044
0.675159 -0.0387495 0.5 -399.05
0.680418 -0.0382459 0.5 -390.112
0.685626 -0.0377433 0.5 -381.314
0.690816 -0.0372389 0.5 -372.554
0.696038 -0.0367272 0.5 -363.927
0.701263 -0.0362109 0.5 -355.074
0.706438 -0.0356954 0.5 -346.126
0.711561 -0.035181 0.5 -337.193
0.716633 -0.0346682 0.5 -328.306
0.72165 -0.0341574 0.5 -319.544
0.726654 -0.0336446 0.5 -310.793
0.731704 -0.0331235 0.5 -302.118
0.736758 -0.032598 0.5 -293.196
0.741759 -0.0320742 0.5 -284.184
0.746705 -0.0315527 0.5 -275.193
0.751594 -0.0310337 0.5 -266.222
0.756425 -0.0305178 0.5 -257.382
0.761255 -0.029999 0.5 -248.508
0.766142 -0.0294707 0.5 -239.645
0.771031 -0.0289385 0.5 -230.521
0.775861 -0.0284092 0.5 -221.327
0.780632 -0.0278832 0.5 -212.145
0.785341 -0.0273608 0.5 -202.996
0.789989 -0.0268423 0.5 -193.924
0.79466 -0.0263184 0.5 -184.794
0.799401 -0.0257833 0.5 -175.544
0.804125 -0.0252465 0.5 -165.995
0.808785 -0.0247137 0.5 -156.388
0.81338 -0.0241853 0.5 -146.784
0.817908 -0.0236617 0.5 -137.228
0.822369 -0.0231434 0.5 -127.723
0.826908 -0.0226131 0.5 -118.108
0.831528 -0.0220701 0.5 -108.175
0.836084 -0.0215313 0.5 -98.02
0.840568 -0.0209979 0.5 -87.8368
0.844979 -0.0204704 0.5 -77.67
0.849317 -0.0199491 0.5 -67.5616
0.853667 -0.0194238 0.5 -57.3366
0.858113 -0.0188842 0.5 -46.9242
0.862564 -0.0183407 0.5 -36.1192
0.866936 -0.0178038 0.5 -25.2146
0.871227 -0.0172741 0.5 -14.3135
0.875436 -0.016752 0.5 -3.46155
0.879628 -0.0162295 0.5 7.51852
0.88393 -0.0156905 0.5 18.7668
0.88827 -0.0151435 0.5 30.5829
0.892518 -0.014605 0.5 42.5147
0.896674 -0.0140755 0.5 54.4484
0.900735 -0.0135557 0.5 66.3296
0.904824 -0.01303 0.5 78.4742
0.909034 -0.0124858 0.5 91.004
0.913238 -0.0119394 0.5 104.135
0.917332 -0.0114042 0.5 117.325
0.921316 -0.010881 0.5 130.442
0.925241 -0.0103633 0.5 143.656
0.929306 -0.00982488 0.5 157.372
0.933445 -0.00927338 0.5 171.904
0.937451 -0.00873681 0.5 186.551
0.941321 -0.00821597 0.5 201.065
0.945168 -0.00769601 0.5 215.886
0.949167 -0.00715299 0.5 231.37
0.953183 -0.00660441 0.5 247.787
0.957024 -0.006077 0.5 264.097
0.960743 -0.00556416 0.5 280.434
0.964631 -0.00502557 0.5 297.676
0.968598 -0.00447292 0.5 316.169
0.972318 -0.00395183 0.5 334.501
0.976051 -0.00342699 0.5 353.452
0.979926 -0.00287974 0.5 373.747
0.983612 -0.00235633 0.5 393.944
0.987331 -0.00182587 0.5 417.128
0.991079 -0.00128868 0.5 436.845
0.994786 -0.000754822 0.5 470.839
0.998359 -0.000238135 0.5 473.757
