# wallShearStress  FACE_DATA 341
#  x  y  z  wallShearStress_x  wallShearStress_y  wallShearStress_z  
0.253551 0.0594249 0.5 -18.1494 -0.450913 3.64572e-18
0.260625 0.059604 0.5 -20.3101 -0.510701 -3.81787e-18
0.268301 0.0597641 0.5 -20.0392 -0.342233 3.34558e-18
0.275825 0.0598682 0.5 -18.8904 -0.194396 -1.01266e-18
0.282831 0.059928 0.5 -18.4168 -0.138932 -9.14274e-19
0.290299 0.0599719 0.5 -18.3963 -0.0873938 1.24559e-34
0.298014 0.0599954 0.5 -18.3247 -0.031231 -2.1007e-19
0.305661 0.0599931 0.5 -18.1427 0.0354418 -4.28003e-19
0.313016 0.0599637 0.5 -17.8606 0.099004 -8.90882e-19
0.3202 0.0599102 0.5 -17.6241 0.151885 8.76476e-19
0.327394 0.0598346 0.5 -17.4472 0.201935 4.25175e-22
0.334592 0.0597382 0.5 -17.2762 0.248132 1.70985e-18
0.341788 0.059622 0.5 -17.1249 0.291676 -1.68832e-18
0.348891 0.0594882 0.5 -16.9857 0.334869 -9.9634e-24
0.355903 0.0593371 0.5 -16.8207 0.376018 -8.30817e-22
0.362912 0.0591677 0.5 -16.6494 0.413589 8.09854e-22
0.369915 0.058981 0.5 -16.5047 0.449378 -6.59763e-18
0.376908 0.0587783 0.5 -16.3662 0.482629 1.17549e-37
0.383848 0.0585616 0.5 -16.2313 0.514188 -3.26136e-18
0.39071 0.0583318 0.5 -16.0796 0.546085 -1.03249e-23
0.397536 0.0580877 0.5 -15.9191 0.575103 -7.89569e-22
0.404349 0.0578293 0.5 -15.767 0.602144 3.17602e-18
0.411146 0.0575577 0.5 -15.627 0.627301 -3.14037e-18
0.417921 0.0572738 0.5 -15.5053 0.651313 4.70198e-38
0.424635 0.05698 0.5 -15.3943 0.675931 -6.22183e-18
0.431287 0.0566758 0.5 -15.2669 0.699875 -6.16009e-18
0.437919 0.0563599 0.5 -15.1311 0.721009 1.09954e-22
0.444529 0.056033 0.5 -15.0073 0.741158 -6.02275e-18
0.451115 0.055696 0.5 -14.8957 0.760255 -1.88079e-36
0.457672 0.0553498 0.5 -14.8003 0.778741 5.90169e-18
0.464179 0.0549959 0.5 -14.7031 0.797735 -2.87125e-21
0.47064 0.0546337 0.5 -14.5894 0.815624 1.16384e-17
0.477077 0.0542621 0.5 -14.4718 0.831572 5.75165e-18
0.483487 0.0538822 0.5 -14.3651 0.846906 2.77984e-21
0.489866 0.0534947 0.5 -14.268 0.861454 -2.09316e-23
0.496211 0.0531004 0.5 -14.1811 0.875289 -1.11602e-17
0.50252 0.0526998 0.5 -14.0988 0.889865 -1.35993e-21
0.508797 0.0522921 0.5 -14.0018 0.904116 5.47174e-18
0.515045 0.0518774 0.5 -13.8988 0.916368 5.4144e-18
0.52126 0.0514563 0.5 -13.8022 0.928015 5.35471e-18
0.52744 0.0510296 0.5 -13.7128 0.938947 5.30108e-18
0.533582 0.0505981 0.5 -13.632 0.949396 6.56866e-35
0.539695 0.0501616 0.5 -13.5608 0.960247 -8.46356e-37
0.545788 0.0497191 0.5 -13.4793 0.971776 5.11889e-18
0.551854 0.0492707 0.5 -13.3867 0.981276 -5.06459e-18
0.557885 0.0488177 0.5 -13.2965 0.990018 5.00932e-18
0.563876 0.0483607 0.5 -13.2135 0.998363 -1.73973e-36
0.569827 0.0479005 0.5 -13.138 1.00641 1.18768e-21
0.575737 0.0474373 0.5 -13.072 1.0144 -1.19542e-21
0.58164 0.0469687 0.5 -13.0063 1.0234 1.41059e-37
0.587536 0.0464941 0.5 -12.9279 1.03152 -4.70238e-18
0.593393 0.0460162 0.5 -12.8453 1.03827 -1.48837e-22
0.599208 0.0455357 0.5 -12.7675 1.04478 -4.98964e-35
0.60498 0.045053 0.5 -12.6957 1.05113 1.7825e-34
0.610706 0.0445687 0.5 -12.6289 1.05716 1.08933e-21
0.616408 0.0440814 0.5 -12.5704 1.06367 1.28007e-22
0.622117 0.043588 0.5 -12.504 1.07081 -4.32925e-18
0.627812 0.04309 0.5 -12.4269 1.07625 -4.2775e-18
0.633463 0.0425903 0.5 -12.3513 1.08119 8.45271e-18
0.639069 0.0420895 0.5 -12.2815 1.08603 8.3518e-18
0.644626 0.0415881 0.5 -12.2174 1.09069 -4.12672e-18
0.650134 0.0410868 0.5 -12.16 1.09534 -2.61547e-37
0.655639 0.0405812 0.5 -12.1086 1.10071 -3.96206e-18
0.661165 0.0400689 0.5 -12.0487 1.10635 -7.76655e-18
0.666665 0.039554 0.5 -11.982 1.11059 -5.64237e-37
0.672117 0.0390389 0.5 -11.9194 1.11478 9.12348e-22
0.677519 0.038524 0.5 -11.8636 1.11911 -9.20955e-22
0.682868 0.0380099 0.5 -11.8142 1.12352 -1.59082e-22
0.688165 0.037497 0.5 -11.7741 1.12837 3.62985e-18
0.693484 0.0369779 0.5 -11.7412 1.13451 1.10826e-34
0.698837 0.0364512 0.5 -11.6972 1.14026 8.22897e-22
0.704147 0.0359241 0.5 -11.6416 1.14421 1.36449e-22
0.709405 0.0353979 0.5 -11.5827 1.14743 -3.30605e-18
0.714609 0.0348733 0.5 -11.5238 1.15013 3.25116e-18
0.719757 0.0343505 0.5 -11.4658 1.15241 7.69951e-22
0.724855 0.0338293 0.5 -11.4131 1.15482 -3.13618e-18
0.729999 0.0332999 0.5 -11.3575 1.15787 -1.5308e-22
0.73518 0.0327625 0.5 -11.291 1.16005 -2.91214e-18
0.740306 0.0322267 0.5 -11.221 1.16129 -6.96602e-22
0.745375 0.0316932 0.5 -11.1539 1.16242 2.7939e-18
0.750386 0.0311622 0.5 -11.0904 1.16346 2.73312e-18
0.755336 0.0306343 0.5 -11.0301 1.16436 -2.673e-18
0.76026 0.0301061 0.5 -10.9755 1.16562 2.57654e-18
0.765241 0.0295683 0.5 -10.9164 1.16753 -3.01867e-35
0.770246 0.0290241 0.5 -10.8471 1.16823 -2.53133e-35
0.775191 0.0284829 0.5 -10.7766 1.16835 1.3309e-35
0.780073 0.027945 0.5 -10.7089 1.16841 3.1831e-35
0.784891 0.0274108 0.5 -10.6441 1.16837 2.57697e-22
0.789645 0.0268807 0.5 -10.5828 1.16829 -2.09073e-18
0.794414 0.0263459 0.5 -10.5246 1.1687 1.95068e-18
0.799254 0.0257999 0.5 -10.4577 1.16931 1.8346e-18
0.804082 0.0252514 0.5 -10.3819 1.16842 -3.0028e-35
0.808843 0.0247071 0.5 -10.3074 1.16722 1.67727e-18
0.813536 0.0241673 0.5 -10.2363 1.16594 -3.89404e-22
0.81816 0.0236326 0.5 -10.1684 1.16453 3.02336e-18
0.822721 0.0231023 0.5 -10.1065 1.16338 -1.42084e-18
0.827366 0.0225594 0.5 -10.0416 1.16293 -1.59217e-22
0.832084 0.0220045 0.5 -9.9637 1.16143 -2.31935e-18
0.836729 0.0214548 0.5 -9.88236 1.1589 1.06411e-18
0.841299 0.0209107 0.5 -9.80415 1.15625 -9.65865e-19
0.845793 0.0203728 0.5 -9.72928 1.15343 -8.64323e-19
0.85021 0.0198415 0.5 -9.65935 1.15067 -5.87747e-39
0.854677 0.0193015 0.5 -9.59213 1.14859 -1.22826e-18
0.859239 0.0187469 0.5 -9.51309 1.14631 -6.7548e-23
0.863766 0.0181934 0.5 -9.42493 1.14236 3.77568e-19
0.868209 0.0176469 0.5 -9.33905 1.13824 3.91091e-23
0.872568 0.017108 0.5 -9.25687 1.13405 1.82882e-39
0.87684 0.0165772 0.5 -9.17864 1.12981 -0
0.881165 0.0160373 0.5 -9.10212 1.12617 0
0.885597 0.0154808 0.5 -9.01179 1.12219 -4.03046e-23
0.889995 0.0149253 0.5 -8.91094 1.1162 4.11766e-23
0.894296 0.0143788 0.5 -8.81425 1.11009 7.74914e-23
0.8985 0.013842 0.5 -8.72178 1.10376 7.22945e-19
0.902612 0.0133146 0.5 -8.63759 1.09781 -8.89033e-19
0.90685 0.0127685 0.5 -8.54888 1.09259 1.27189e-22
0.911199 0.0122047 0.5 -8.44024 1.08557 -1.14624e-18
0.915436 0.0116524 0.5 -8.32658 1.07694 2.68068e-18
0.919558 0.0111121 0.5 -8.2187 1.06823 -9.94649e-23
0.923564 0.0105848 0.5 -8.11769 1.05951 1.76224e-18
0.92766 0.0100432 0.5 -8.01704 1.05139 -1.26959e-22
0.931889 0.00948105 0.5 -7.89431 1.04195 -1.99096e-18
0.936032 0.00892713 0.5 -7.75919 1.02986 -2.24539e-18
0.940034 0.00838932 0.5 -7.62838 1.0174 1.59537e-22
0.943918 0.00786528 0.5 -7.5068 1.00518 2.77577e-18
0.947957 0.00731753 0.5 -7.37318 0.992937 -2.69412e-18
0.952111 0.00675118 0.5 -7.21003 0.977311 0
0.956082 0.0062066 0.5 -7.04125 0.95947 -2.13129e-22
0.959868 0.005685 0.5 -6.88576 0.942062 -1.88845e-18
0.963806 0.00514008 0.5 -6.7202 0.924383 3.54713e-18
0.967884 0.00457263 0.5 -6.51416 0.902319 -3.97006e-18
0.971729 0.00403453 0.5 -6.29991 0.876933 -4.5008e-18
0.97552 0.00350184 0.5 -6.09554 0.851517 -4.57672e-18
0.979458 0.0029459 0.5 -5.86844 0.825317 1.46704e-22
0.983267 0.00240536 0.5 -5.56232 0.786355 -2.74026e-18
0.98706 0.00186472 0.5 -5.35198 0.759983 -1.56058e-22
0.990882 0.00131704 0.5 -4.80627 0.687759 -5.98931e-18
0.994678 0.000770466 0.5 -4.93271 0.705881 1.77445e-22
0.99832 0.00024378 0.5 -2.21084 0.801891 -3.69048e-21
0.00133235 0.00449653 0.5 -19.2655 -65.4888 -1.84814e-39
0.00576479 0.0125392 0.5 -54.1916 -63.1825 0
0.0127073 0.018847 0.5 -45.1831 -33.2328 -2.42645e-17
0.0207688 0.0238748 0.5 -34.8014 -19.0548 -5.70965e-17
0.0291543 0.0279559 0.5 -28.1715 -12.4846 -7.96653e-21
0.037672 0.0313759 0.5 -23.8463 -8.93167 3.08117e-22
0.0464094 0.0343841 0.5 -20.6798 -6.69995 4.3168e-17
0.0551576 0.0370177 0.5 -18.4638 -5.27136 4.79003e-17
0.0639069 0.0393539 0.5 -16.6463 -4.23584 1.01205e-16
0.0727041 0.0414595 0.5 -15.2386 -3.48384 -5.23262e-17
0.081414 0.0433437 0.5 -14.0653 -2.91259 2.76586e-17
0.090183 0.0450639 0.5 -13.0868 -2.46198 -2.71288e-17
0.098871 0.0466203 0.5 -12.2192 -2.09593 -1.07513e-21
0.107395 0.0480148 0.5 -11.499 -1.80702 -8.82969e-22
0.116087 0.049318 0.5 -10.8566 -1.56146 8.68195e-22
0.124618 0.0504925 0.5 -10.2862 -1.35593 9.25658e-22
0.132994 0.0515502 0.5 -9.83312 -1.19183 2.97626e-17
0.141535 0.0525408 0.5 -9.43445 -1.04842 2.92972e-17
0.149928 0.053435 0.5 -9.10847 -0.92773 1.5473e-17
0.158135 0.0542362 0.5 -8.89754 -0.828863 -4.0305e-23
0.166435 0.0549791 0.5 -9.37589 -0.793612 -1.50177e-17
0.174718 0.0556571 0.5 -10.8049 -0.830661 -2.23344e-37
0.182824 0.0562624 0.5 -13.3502 -0.9356 -1.51229e-17
0.190865 0.0568083 0.5 -16.4903 -1.05466 -4.5301e-22
0.198976 0.0573076 0.5 -19.2548 -1.11867 2.29589e-41
0.20712 0.0577564 0.5 -20.7706 -1.07142 9.95879e-35
0.215524 0.0581602 0.5 -20.954 -0.930196 -6.68187e-18
0.224086 0.0585239 0.5 -20.7874 -0.835583 -6.6935e-18
0.231971 0.0588335 0.5 -20.8638 -0.791059 7.71116e-18
0.239768 0.0591111 0.5 -21.3893 -0.719487 1.06352e-22
0.246955 0.0592927 0.5 -19.101 -0.277134 -1.79597e-22
0.00133235 -0.00449653 0.5 -19.2369 65.3827 0
0.00576479 -0.0125392 0.5 -53.881 62.7984 -1.48921e-16
0.0127073 -0.018847 0.5 -44.7068 32.868 4.72404e-17
0.0207688 -0.0238748 0.5 -34.6723 18.9701 2.87539e-17
0.0291543 -0.0279559 0.5 -28.0369 12.4146 1.81684e-34
0.037672 -0.0313759 0.5 -23.8367 8.92556 1.16488e-38
0.0464094 -0.0343841 0.5 -20.8048 6.74493 -4.97662e-38
0.0551576 -0.0370177 0.5 -18.4201 5.25451 4.5139e-36
0.0639069 -0.0393539 0.5 -16.6619 4.23991 -5.05145e-17
0.0727041 -0.0414595 0.5 -15.2723 3.49352 5.23965e-17
0.081414 -0.0433437 0.5 -14.0914 2.91845 -1.68578e-21
0.090183 -0.0450639 0.5 -13.0979 2.46378 5.43337e-17
0.098871 -0.0466203 0.5 -12.2392 2.0988 5.8395e-17
0.107395 -0.0480148 0.5 -11.5139 1.80898 2.88775e-17
0.116087 -0.049318 0.5 -10.8771 1.56408 -1.50463e-36
0.124618 -0.0504925 0.5 -10.3064 1.35857 -3.0346e-17
0.132994 -0.0515502 0.5 -9.86765 1.19605 -5.95603e-17
0.141535 -0.0525408 0.5 -9.4718 1.05283 -2.93438e-17
0.149928 -0.053435 0.5 -9.15954 0.932611 -9.45847e-22
0.158135 -0.0542362 0.5 -9.1585 0.851838 -1.53375e-17
0.166435 -0.0549791 0.5 -10.0527 0.849739 1.4961e-17
0.174718 -0.0556571 0.5 -11.7382 0.903105 4.51904e-22
0.182824 -0.0562624 0.5 -14.2857 1.0034 -9.1935e-22
0.190865 -0.0568083 0.5 -17.2011 1.1027 4.51386e-22
0.198976 -0.0573076 0.5 -19.7302 1.14791 1.43934e-17
0.20712 -0.0577564 0.5 -21.039 1.08607 -7.16256e-18
0.215524 -0.0581602 0.5 -21.0703 0.936022 6.68876e-18
0.224086 -0.0585239 0.5 -20.8035 0.836826 6.70441e-18
0.231971 -0.0588335 0.5 -20.8298 0.7898 1.17864e-22
0.239768 -0.0591111 0.5 -21.3663 0.717734 -1.03991e-22
0.246955 -0.0592927 0.5 -19.0416 0.278804 2.41389e-18
0.253478 -0.0594229 0.5 -18.1029 0.452673 -3.04571e-23
0.260394 -0.0595984 0.5 -20.2849 0.512602 4.12758e-39
0.267845 -0.0597569 0.5 -20.0823 0.35376 2.09546e-22
0.275233 -0.059862 0.5 -18.9381 0.200328 -2.49449e-22
0.282135 -0.059923 0.5 -18.423 0.143488 -2.28942e-22
0.289403 -0.0599678 0.5 -18.4059 0.093222 2.16214e-22
0.296942 -0.0599937 0.5 -18.3309 0.039376 -1.25875e-38
0.304465 -0.0599955 0.5 -18.1848 -0.0244976 -5.65707e-38
0.311708 -0.0599711 0.5 -17.9193 -0.0898624 1.82137e-18
0.318744 -0.0599229 0.5 -17.6631 -0.14216 8.66927e-38
0.325783 -0.0598535 0.5 -17.4896 -0.192099 -2.6193e-35
0.332827 -0.0597638 0.5 -17.3275 -0.238429 1.75162e-18
0.339871 -0.0596549 0.5 -17.172 -0.281675 3.46086e-18
0.346848 -0.0595287 0.5 -17.0297 -0.323408 8.55735e-22
0.353736 -0.0593859 0.5 -16.8812 -0.365294 -3.46949e-18
0.360596 -0.0592257 0.5 -16.7155 -0.40339 8.41847e-22
0.367453 -0.0590487 0.5 -16.5595 -0.438852 3.23506e-23
0.3743 -0.0588558 0.5 -16.4202 -0.472183 -3.3465e-18
0.381124 -0.0586486 0.5 -16.3066 -0.504094 8.161e-22
0.38787 -0.0584289 0.5 -16.1864 -0.536496 6.675e-18
0.394554 -0.0581963 0.5 -16.0422 -0.566544 -1.31655e-36
0.401228 -0.0579495 0.5 -15.9005 -0.594429 -6.52169e-18
0.407888 -0.0576896 0.5 -15.7738 -0.620847 7.9249e-22
0.41453 -0.0574175 0.5 -15.6598 -0.645741 -2.46854e-37
0.421133 -0.0571349 0.5 -15.5576 -0.669564 -3.17441e-18
0.427675 -0.0568427 0.5 -15.4467 -0.694407 -7.67593e-22
0.434175 -0.0565398 0.5 -15.3196 -0.716862 7.69542e-22
0.440657 -0.0562259 0.5 -15.2011 -0.738062 -5.17218e-37
0.447118 -0.0559019 0.5 -15.0909 -0.757964 6.12674e-18
0.453553 -0.0555685 0.5 -14.9877 -0.776434 7.35085e-22
0.459952 -0.0552271 0.5 -14.9007 -0.79477 6.02016e-18
0.466305 -0.054878 0.5 -14.8034 -0.81401 5.98636e-18
0.472621 -0.0545205 0.5 -14.6905 -0.831192 -1.1845e-17
0.478913 -0.0541543 0.5 -14.576 -0.846808 1.04493e-22
0.485178 -0.0537804 0.5 -14.4687 -0.861356 -5.79983e-18
0.491413 -0.0533994 0.5 -14.3722 -0.875315 5.74234e-18
0.497615 -0.0530121 0.5 -14.2882 -0.888878 -6.89489e-22
0.503783 -0.0526186 0.5 -14.2048 -0.903666 1.37623e-21
0.509921 -0.0522183 0.5 -14.1054 -0.917198 -1.11611e-17
0.51603 -0.0518112 0.5 -14.0026 -0.929049 5.52125e-18
0.522108 -0.0513982 0.5 -13.9088 -0.940496 1.09278e-17
0.528152 -0.05098 0.5 -13.8238 -0.951421 5.40998e-18
0.534159 -0.0505573 0.5 -13.7476 -0.961877 6.48986e-22
0.54014 -0.0501296 0.5 -13.6812 -0.97293 -9.93848e-24
0.546102 -0.0496961 0.5 -13.6031 -0.984487 5.2254e-18
0.552038 -0.0492571 0.5 -13.5144 -0.994016 5.17125e-18
0.557939 -0.0488136 0.5 -13.4318 -1.00322 6.19414e-22
0.563803 -0.0483664 0.5 -13.3567 -1.01207 -1.23644e-21
0.569628 -0.047916 0.5 -13.289 -1.02056 4.93606e-22
0.575412 -0.047463 0.5 -13.2296 -1.02893 -6.0123e-22
0.58119 -0.0470047 0.5 -13.1683 -1.03793 -4.8601e-18
0.586964 -0.0465405 0.5 -13.0933 -1.04626 1.00663e-23
0.5927 -0.0460731 0.5 -13.0132 -1.05326 1.16143e-21
0.598397 -0.0456031 0.5 -12.9369 -1.05991 -4.70683e-18
0.604052 -0.045131 0.5 -12.8659 -1.0663 -4.65655e-18
0.609664 -0.0446572 0.5 -12.7999 -1.07239 1.69271e-36
0.615243 -0.0441814 0.5 -12.7408 -1.07856 3.94966e-36
0.620829 -0.0436999 0.5 -12.6769 -1.08555 8.86686e-18
0.626413 -0.0432129 0.5 -12.6014 -1.09134 -1.88079e-36
0.631955 -0.0427242 0.5 -12.5249 -1.09631 -4.33177e-18
0.637454 -0.0422343 0.5 -12.4525 -1.10097 -6.58277e-37
0.642907 -0.0417437 0.5 -12.3865 -1.10558 4.23139e-18
0.648313 -0.041253 0.5 -12.3245 -1.10986 -4.18398e-18
0.653694 -0.0407603 0.5 -12.2697 -1.1144 -1.30466e-22
0.659096 -0.0402614 0.5 -12.2103 -1.11982 4.816e-22
0.664496 -0.0397577 0.5 -12.1401 -1.12396 3.93592e-18
0.669852 -0.0392536 0.5 -12.0696 -1.1275 -3.88466e-18
0.675159 -0.0387495 0.5 -12.0027 -1.13088 7.82578e-35
0.680418 -0.0382459 0.5 -11.9405 -1.13417 -3.78237e-18
0.685626 -0.0377433 0.5 -11.8813 -1.13722 3.14908e-22
0.690816 -0.0372389 0.5 -11.828 -1.1406 -3.63833e-18
0.696038 -0.0367272 0.5 -11.7691 -1.14467 -1.88079e-37
0.701263 -0.0362109 0.5 -11.7003 -1.14744 3.01538e-34
0.706438 -0.0356954 0.5 -11.6316 -1.14974 3.4096e-18
0.711561 -0.035181 0.5 -11.5662 -1.15188 -3.35513e-18
0.716633 -0.0346682 0.5 -11.5049 -1.15395 -3.30054e-18
0.72165 -0.0341574 0.5 -11.4466 -1.15582 -3.24762e-18
0.726654 -0.0336446 0.5 -11.3937 -1.15807 3.13968e-18
0.731704 -0.0331235 0.5 -11.3347 -1.16094 1.07913e-23
0.736758 -0.032598 0.5 -11.2661 -1.16249 1.10517e-23
0.741759 -0.0320742 0.5 -11.1981 -1.16367 7.07297e-22
0.746705 -0.0315527 0.5 -11.1327 -1.16467 -6.92632e-22
0.751594 -0.0310337 0.5 -11.0716 -1.16567 6.7794e-22
0.756425 -0.0305178 0.5 -11.0135 -1.16652 -6.63302e-22
0.761255 -0.029999 0.5 -10.9598 -1.16776 3.223e-22
0.766142 -0.0294707 0.5 -10.8997 -1.16951 2.46992e-18
0.771031 -0.0289385 0.5 -10.8307 -1.16997 -2.40365e-18
0.775861 -0.0284092 0.5 -10.7623 -1.17013 -2.911e-22
0.780632 -0.0278832 0.5 -10.6965 -1.17016 4.53503e-18
0.785341 -0.0273608 0.5 -10.6336 -1.1701 -2.19791e-18
0.789989 -0.0268423 0.5 -10.5743 -1.17004 -1.88079e-37
0.79466 -0.0263184 0.5 -10.5173 -1.17047 0
0.799401 -0.0257833 0.5 -10.4509 -1.17095 -2.11589e-37
0.804125 -0.0252465 0.5 -10.3765 -1.17004 1.79149e-18
0.808785 -0.0247137 0.5 -10.304 -1.16893 4.17824e-22
0.81338 -0.0241853 0.5 -10.2348 -1.16771 -1.63003e-18
0.817908 -0.0236617 0.5 -10.1682 -1.1663 -1.54601e-18
0.822369 -0.0231434 0.5 -10.1077 -1.16516 1.46148e-18
0.826908 -0.0226131 0.5 -10.0456 -1.16469 -1.63548e-22
0.831528 -0.0220701 0.5 -9.97054 -1.16343 2.38618e-18
0.836084 -0.0215313 0.5 -9.89052 -1.16096 -1.40934e-22
0.840568 -0.0209979 0.5 -9.81384 -1.15841 5.02225e-42
0.844979 -0.0204704 0.5 -9.74064 -1.15574 -1.02515e-22
0.849317 -0.0199491 0.5 -9.67126 -1.15298 1.04282e-22
0.853667 -0.0194238 0.5 -9.60688 -1.1508 2.10317e-35
0.858113 -0.0188842 0.5 -9.53355 -1.14896 0
0.862564 -0.0183407 0.5 -9.44827 -1.14536 2.93874e-38
0.866936 -0.0178038 0.5 -9.36386 -1.1414 -2.9455e-19
0.871227 -0.0172741 0.5 -9.2831 -1.13739 -5.87747e-39
0.875436 -0.016752 0.5 -9.20518 -1.13319 -4.20188e-20
0.879628 -0.0162295 0.5 -9.13311 -1.12953 -9.01723e-20
0.88393 -0.0156905 0.5 -9.05122 -1.12622 2.16485e-19
0.88827 -0.0151435 0.5 -8.95485 -1.12094 2.93874e-38
0.892518 -0.014605 0.5 -8.85929 -1.1151 -7.13222e-23
0.896674 -0.0140755 0.5 -8.76799 -1.1091 1.63761e-22
0.900735 -0.0135557 0.5 -8.68137 -1.10298 -9.29554e-23
0.904824 -0.01303 0.5 -8.60035 -1.09759 9.53168e-19
0.909034 -0.0124858 0.5 -8.50435 -1.09211 2.16156e-18
0.913238 -0.0119394 0.5 -8.39253 -1.084 1.5503e-22
0.917332 -0.0114042 0.5 -8.28444 -1.07559 1.46821e-18
0.921316 -0.010881 0.5 -8.18036 -1.06681 1.24721e-22
0.925241 -0.0103633 0.5 -8.08451 -1.05841 -1.18188e-22
0.929306 -0.00982488 0.5 -7.97758 -1.05032 1.89105e-18
0.933445 -0.00927338 0.5 -7.84779 -1.03945 -2.13294e-18
0.937451 -0.00873681 0.5 -7.71641 -1.02739 -2.39375e-18
0.941321 -0.00821597 0.5 -7.58942 -1.01493 2.67218e-18
0.945168 -0.00769601 0.5 -7.46958 -1.00288 -2.801e-18
0.949167 -0.00715299 0.5 -7.32938 -0.990222 -2.84884e-18
0.953183 -0.00660441 0.5 -7.16405 -0.973694 3.18619e-18
0.957024 -0.006077 0.5 -7.00048 -0.956072 7.10897e-18
0.960743 -0.00556416 0.5 -6.84976 -0.938947 -1.88079e-37
0.964631 -0.00502557 0.5 -6.68 -0.921223 -3.76158e-37
0.968598 -0.00447292 0.5 -6.47149 -0.898228 -4.15317e-18
0.972318 -0.00395183 0.5 -6.26577 -0.873521 2.34762e-18
0.976051 -0.00342699 0.5 -6.06347 -0.848385 1.44776e-22
0.979926 -0.00287974 0.5 -5.83358 -0.821688 -4.86372e-18
0.983612 -0.00235633 0.5 -5.53378 -0.783154 5.6926e-18
0.987331 -0.00182587 0.5 -5.3272 -0.757283 -5.33613e-18
0.991079 -0.00128868 0.5 -4.78138 -0.684714 1.11145e-23
0.994786 -0.000754822 0.5 -4.91643 -0.703892 6.15156e-18
0.998359 -0.000238135 0.5 -2.20812 -0.806727 -3.63985e-18
