# p  FACE_DATA 341
#  x  y  z  p
0.253551 0.0594249 0.5 -990.446
0.260625 0.059604 0.5 -1095.5
0.268301 0.0597641 0.5 -1093.06
0.275825 0.0598682 0.5 -1079.58
0.282831 0.059928 0.5 -1049.94
0.290299 0.0599719 0.5 -1041.64
0.298014 0.0599954 0.5 -1028.45
0.305661 0.0599931 0.5 -1021.35
0.313016 0.0599637 0.5 -1009.79
0.3202 0.0599102 0.5 -995.608
0.327394 0.0598346 0.5 -984.083
0.334592 0.0597382 0.5 -971.519
0.341788 0.059622 0.5 -959.107
0.348891 0.0594882 0.5 -947.547
0.355903 0.0593371 0.5 -936.501
0.362912 0.0591677 0.5 -923.854
0.369915 0.058981 0.5 -911.475
0.376908 0.0587783 0.5 -899.776
0.383848 0.0585616 0.5 -887.926
0.39071 0.0583318 0.5 -877.174
0.397536 0.0580877 0.5 -864.993
0.404349 0.0578293 0.5 -853.569
0.411146 0.0575577 0.5 -841.607
0.417921 0.0572738 0.5 -830.069
0.424635 0.05698 0.5 -818.958
0.431287 0.0566758 0.5 -808.394
0.437919 0.0563599 0.5 -796.881
0.444529 0.056033 0.5 -785.409
0.451115 0.055696 0.5 -774.184
0.457672 0.0553498 0.5 -762.971
0.464179 0.0549959 0.5 -752.749
0.47064 0.0546337 0.5 -742.098
0.477077 0.0542621 0.5 -731.169
0.483487 0.0538822 0.5 -720.158
0.489866 0.0534947 0.5 -709.436
0.496211 0.0531004 0.5 -698.832
0.50252 0.0526998 0.5 -688.569
0.508797 0.0522921 0.5 -678.624
0.515045 0.0518774 0.5 -667.973
0.52126 0.0514563 0.5 -657.573
0.52744 0.0510296 0.5 -647.147
0.533582 0.0505981 0.5 -636.907
0.539695 0.0501616 0.5 -626.867
0.545788 0.0497191 0.5 -617.389
0.551854 0.0492707 0.5 -607.286
0.557885 0.0488177 0.5 -597.304
0.563876 0.0483607 0.5 -587.244
0.569827 0.0479005 0.5 -577.353
0.575737 0.0474373 0.5 -567.655
0.58164 0.0469687 0.5 -558.27
0.587536 0.0464941 0.5 -548.918
0.593393 0.0460162 0.5 -539.224
0.599208 0.0455357 0.5 -529.618
0.60498 0.045053 0.5 -520.028
0.610706 0.0445687 0.5 -510.682
0.616408 0.0440814 0.5 -501.304
0.622117 0.043588 0.5 -492.43
0.627812 0.04309 0.5 -483.054
0.633463 0.0425903 0.5 -473.648
0.639069 0.0420895 0.5 -464.282
0.644626 0.0415881 0.5 -454.989
0.650134 0.0410868 0.5 -445.86
0.655639 0.0405812 0.5 -436.818
0.661165 0.0400689 0.5 -428.059
0.666665 0.039554 0.5 -418.842
0.672117 0.0390389 0.5 -409.713
0.677519 0.038524 0.5 -400.581
0.682868 0.0380099 0.5 -391.577
0.688165 0.037497 0.5 -382.63
0.693484 0.0369779 0.5 -373.844
0.698837 0.0364512 0.5 -365.013
0.704147 0.0359241 0.5 -355.882
0.709405 0.0353979 0.5 -346.825
0.714609 0.0348733 0.5 -337.76
0.719757 0.0343505 0.5 -328.832
0.724855 0.0338293 0.5 -319.915
0.729999 0.0332999 0.5 -311.168
0.73518 0.0327625 0.5 -302.179
0.740306 0.0322267 0.5 -293.014
0.745375 0.0316932 0.5 -283.907
0.750386 0.0311622 0.5 -274.813
0.755336 0.0306343 0.5 -265.836
0.76026 0.0301061 0.5 -256.845
0.765241 0.0295683 0.5 -247.95
0.770246 0.0290241 0.5 -238.746
0.775191 0.0284829 0.5 -229.433
0.780073 0.027945 0.5 -220.158
0.784891 0.0274108 0.5 -210.898
0.789645 0.0268807 0.5 -201.731
0.794414 0.0263459 0.5 -192.476
0.799254 0.0257999 0.5 -183.198
0.804082 0.0252514 0.5 -173.518
0.808843 0.0247071 0.5 -163.833
0.813536 0.0241673 0.5 -154.123
0.81816 0.0236326 0.5 -144.483
0.822721 0.0231023 0.5 -134.872
0.827366 0.0225594 0.5 -125.181
0.832084 0.0220045 0.5 -115.153
0.836729 0.0214548 0.5 -104.863
0.841299 0.0209107 0.5 -94.6676
0.845793 0.0203728 0.5 -84.41
0.85021 0.0198415 0.5 -74.2757
0.854677 0.0193015 0.5 -63.9096
0.859239 0.0187469 0.5 -53.4124
0.863766 0.0181934 0.5 -42.4094
0.868209 0.0176469 0.5 -31.5096
0.872568 0.017108 0.5 -20.5184
0.87684 0.0165772 0.5 -9.68861
0.881165 0.0160373 0.5 1.50614
0.885597 0.0154808 0.5 12.9226
0.889995 0.0149253 0.5 24.9361
0.894296 0.0143788 0.5 36.8964
0.8985 0.013842 0.5 48.8419
0.902612 0.0133146 0.5 60.7804
0.90685 0.0127685 0.5 73.0702
0.911199 0.0122047 0.5 86.0425
0.915436 0.0116524 0.5 99.3145
0.919558 0.0111121 0.5 112.488
0.923564 0.0105848 0.5 125.588
0.92766 0.0100432 0.5 139.215
0.931889 0.00948105 0.5 153.346
0.936032 0.00892713 0.5 168.168
0.940034 0.00838932 0.5 182.677
0.943918 0.00786528 0.5 197.308
0.947957 0.00731753 0.5 212.604
0.952111 0.00675118 0.5 228.858
0.956082 0.0062066 0.5 245.576
0.959868 0.005685 0.5 261.344
0.963806 0.00514008 0.5 279.309
0.967884 0.00457263 0.5 296.273
0.971729 0.00403453 0.5 317.213
0.97552 0.00350184 0.5 332.261
0.979458 0.0029459 0.5 359.077
0.983267 0.00240536 0.5 368.857
0.98706 0.00186472 0.5 410.055
0.990882 0.00131704 0.5 401.747
0.994678 0.000770466 0.5 480.553
0.99832 0.00024378 0.5 421.848
0.00133235 0.00449653 0.5 3742.21
0.00576479 0.0125392 0.5 1700.15
0.0127073 0.018847 0.5 264.835
0.0207688 0.0238748 0.5 -352.642
0.0291543 0.0279559 0.5 -645.545
0.037672 0.0313759 0.5 -885.282
0.0464094 0.0343841 0.5 -954.393
0.0551576 0.0370177 0.5 -1078.34
0.0639069 0.0393539 0.5 -1109.78
0.0727041 0.0414595 0.5 -1151.06
0.081414 0.0433437 0.5 -1184.53
0.090183 0.0450639 0.5 -1193.59
0.098871 0.0466203 0.5 -1214.63
0.107395 0.0480148 0.5 -1214.79
0.116087 0.049318 0.5 -1224.9
0.124618 0.0504925 0.5 -1223.09
0.132994 0.0515502 0.5 -1223.64
0.141535 0.0525408 0.5 -1222.9
0.149928 0.053435 0.5 -1217.21
0.158135 0.0542362 0.5 -1214.77
0.166435 0.0549791 0.5 -1206.47
0.174718 0.0556571 0.5 -1201.69
0.182824 0.0562624 0.5 -1193.18
0.190865 0.0568083 0.5 -1184.98
0.198976 0.0573076 0.5 -1178.63
0.20712 0.0577564 0.5 -1167.11
0.215524 0.0581602 0.5 -1165.72
0.224086 0.0585239 0.5 -1121.98
0.231971 0.0588335 0.5 -1137.48
0.239768 0.0591111 0.5 -1102.56
0.246955 0.0592927 0.5 -1195.32
0.00133235 -0.00449653 0.5 3705.34
0.00576479 -0.0125392 0.5 1744.24
0.0127073 -0.018847 0.5 227.227
0.0207688 -0.0238748 0.5 -325.904
0.0291543 -0.0279559 0.5 -674.209
0.037672 -0.0313759 0.5 -842.838
0.0464094 -0.0343841 0.5 -995.754
0.0551576 -0.0370177 0.5 -1050.55
0.0639069 -0.0393539 0.5 -1123.46
0.0727041 -0.0414595 0.5 -1146.53
0.081414 -0.0433437 0.5 -1186.82
0.090183 -0.0450639 0.5 -1194.82
0.098871 -0.0466203 0.5 -1213.74
0.107395 -0.0480148 0.5 -1216.72
0.116087 -0.049318 0.5 -1222.99
0.124618 -0.0504925 0.5 -1225.01
0.132994 -0.0515502 0.5 -1221.5
0.141535 -0.0525408 0.5 -1224.76
0.149928 -0.053435 0.5 -1215.22
0.158135 -0.0542362 0.5 -1216.51
0.166435 -0.0549791 0.5 -1204.59
0.174718 -0.0556571 0.5 -1203.31
0.182824 -0.0562624 0.5 -1191.48
0.190865 -0.0568083 0.5 -1186.45
0.198976 -0.0573076 0.5 -1177.08
0.20712 -0.0577564 0.5 -1168.32
0.215524 -0.0581602 0.5 -1164.42
0.224086 -0.0585239 0.5 -1122.62
0.231971 -0.0588335 0.5 -1137.03
0.239768 -0.0591111 0.5 -1101.46
0.246955 -0.0592927 0.5 -1196.73
0.253478 -0.0594229 0.5 -990.594
0.260394 -0.0595984 0.5 -1095.32
0.267845 -0.0597569 0.5 -1091.5
0.275233 -0.059862 0.5 -1082.54
0.282135 -0.059923 0.5 -1050.74
0.289403 -0.0599678 0.5 -1043.04
0.296942 -0.0599937 0.5 -1030.18
0.304465 -0.0599955 0.5 -1021.52
0.311708 -0.0599711 0.5 -1012.82
0.318744 -0.0599229 0.5 -997.906
0.325783 -0.0598535 0.5 -986.408
0.332827 -0.0597638 0.5 -974.383
0.339871 -0.0596549 0.5 -962.356
0.346848 -0.0595287 0.5 -950.767
0.353736 -0.0593859 0.5 -939.517
0.360596 -0.0592257 0.5 -928.054
0.367453 -0.0590487 0.5 -915.728
0.3743 -0.0588558 0.5 -904.038
0.381124 -0.0586486 0.5 -891.995
0.38787 -0.0584289 0.5 -881.756
0.394554 -0.0581963 0.5 -870.293
0.401228 -0.0579495 0.5 -858.644
0.407888 -0.0576896 0.5 -847.026
0.41453 -0.0574175 0.5 -835.661
0.421133 -0.0571349 0.5 -824.644
0.427675 -0.0568427 0.5 -814.152
0.434175 -0.0565398 0.5 -803.208
0.440657 -0.0562259 0.5 -791.816
0.447118 -0.0559019 0.5 -780.975
0.453553 -0.0555685 0.5 -769.947
0.459952 -0.0552271 0.5 -759.064
0.466305 -0.054878 0.5 -749.274
0.472621 -0.0545205 0.5 -738.398
0.478913 -0.0541543 0.5 -728.017
0.485178 -0.0537804 0.5 -717.171
0.491413 -0.0533994 0.5 -706.631
0.497615 -0.0530121 0.5 -696.312
0.503783 -0.0526186 0.5 -686.424
0.509921 -0.0522183 0.5 -676.617
0.51603 -0.0518112 0.5 -666.23
0.522108 -0.0513982 0.5 -655.97
0.528152 -0.05098 0.5 -645.774
0.534159 -0.0505573 0.5 -635.815
0.54014 -0.0501296 0.5 -626.004
0.546102 -0.0496961 0.5 -616.834
0.552038 -0.0492571 0.5 -606.88
0.557939 -0.0488136 0.5 -597.045
0.563803 -0.0483664 0.5 -587.259
0.569628 -0.047916 0.5 -577.56
0.575412 -0.047463 0.5 -568.074
0.58119 -0.0470047 0.5 -558.95
0.586964 -0.0465405 0.5 -549.75
0.5927 -0.0460731 0.5 -540.263
0.598397 -0.0456031 0.5 -530.873
0.604052 -0.045131 0.5 -521.489
0.609664 -0.0446572 0.5 -512.283
0.615243 -0.0441814 0.5 -503.188
0.620829 -0.0436999 0.5 -494.38
0.626413 -0.0432129 0.5 -485.324
0.631955 -0.0427242 0.5 -476.073
0.637454 -0.0422343 0.5 -466.972
0.642907 -0.0417437 0.5 -457.747
0.648313 -0.041253 0.5 -448.901
0.653694 -0.0407603 0.5 -439.922
0.659096 -0.0402614 0.5 -431.357
0.664496 -0.0397577 0.5 -422.43
0.669852 -0.0392536 0.5 -413.447
0.675159 -0.0387495 0.5 -404.528
0.680418 -0.0382459 0.5 -395.603
0.685626 -0.0377433 0.5 -386.917
0.690816 -0.0372389 0.5 -378.147
0.696038 -0.0367272 0.5 -369.661
0.701263 -0.0362109 0.5 -360.805
0.706438 -0.0356954 0.5 -351.91
0.711561 -0.035181 0.5 -343.068
0.716633 -0.0346682 0.5 -334.205
0.72165 -0.0341574 0.5 -325.559
0.726654 -0.0336446 0.5 -316.811
0.731704 -0.0331235 0.5 -308.278
0.736758 -0.032598 0.5 -299.374
0.741759 -0.0320742 0.5 -290.417
0.746705 -0.0315527 0.5 -281.545
0.751594 -0.0310337 0.5 -272.593
0.756425 -0.0305178 0.5 -263.897
0.761255 -0.029999 0.5 -255.036
0.766142 -0.0294707 0.5 -246.335
0.771031 -0.0289385 0.5 -237.234
0.775861 -0.0284092 0.5 -228.139
0.780632 -0.0278832 0.5 -219.057
0.785341 -0.0273608 0.5 -209.986
0.789989 -0.0268423 0.5 -201.024
0.79466 -0.0263184 0.5 -191.968
0.799401 -0.0257833 0.5 -182.883
0.804125 -0.0252465 0.5 -173.382
0.808785 -0.0247137 0.5 -163.928
0.81338 -0.0241853 0.5 -154.426
0.817908 -0.0236617 0.5 -145.017
0.822369 -0.0231434 0.5 -135.608
0.826908 -0.0226131 0.5 -126.155
0.831528 -0.0220701 0.5 -116.366
0.836084 -0.0215313 0.5 -106.306
0.840568 -0.0209979 0.5 -96.2965
0.844979 -0.0204704 0.5 -86.2554
0.849317 -0.0199491 0.5 -76.3185
0.853667 -0.0194238 0.5 -66.2114
0.858113 -0.0188842 0.5 -56.0255
0.862564 -0.0183407 0.5 -45.3304
0.866936 -0.0178038 0.5 -34.6223
0.871227 -0.0172741 0.5 -23.876
0.875436 -0.016752 0.5 -13.2413
0.879628 -0.0162295 0.5 -2.38533
0.88393 -0.0156905 0.5 8.57246
0.88827 -0.0151435 0.5 20.2666
0.892518 -0.014605 0.5 31.9499
0.896674 -0.0140755 0.5 43.6979
0.900735 -0.0135557 0.5 55.3283
0.904824 -0.01303 0.5 67.3081
0.909034 -0.0124858 0.5 79.5029
0.913238 -0.0119394 0.5 92.48
0.917332 -0.0114042 0.5 105.398
0.921316 -0.010881 0.5 118.252
0.925241 -0.0103633 0.5 131.264
0.929306 -0.00982488 0.5 144.648
0.933445 -0.00927338 0.5 158.94
0.937451 -0.00873681 0.5 173.342
0.941321 -0.00821597 0.5 187.533
0.945168 -0.00769601 0.5 202.149
0.949167 -0.00715299 0.5 217.266
0.953183 -0.00660441 0.5 233.394
0.957024 -0.006077 0.5 249.578
0.960743 -0.00556416 0.5 265.29
0.964631 -0.00502557 0.5 282.925
0.968598 -0.00447292 0.5 299.816
0.972318 -0.00395183 0.5 320.155
0.976051 -0.00342699 0.5 335.017
0.979926 -0.00287974 0.5 361.559
0.983612 -0.00235633 0.5 371.05
0.987331 -0.00182587 0.5 411.667
0.991079 -0.00128868 0.5 403.342
0.994786 -0.000754822 0.5 481.154
0.998359 -0.000238135 0.5 422.734
