# wallShearStress  FACE_DATA 341
#  x  y  z  wallShearStress_x  wallShearStress_y  wallShearStress_z  
0.253551 0.0594249 0.5 -16.6921 -0.407333 4.37239e-23
0.260625 0.059604 0.5 -19.6241 -0.495596 1.17954e-22
0.268301 0.0597641 0.5 -18.698 -0.320798 3.27561e-18
0.275825 0.0598682 0.5 -17.8703 -0.183912 -1.05794e-37
0.282831 0.059928 0.5 -17.5346 -0.132009 4.37301e-22
0.290299 0.0599719 0.5 -17.5757 -0.0839458 -4.14461e-22
0.298014 0.0599954 0.5 -17.5154 -0.0304898 -2.0657e-19
0.305661 0.0599931 0.5 -17.408 0.0336827 -8.43084e-19
0.313016 0.0599637 0.5 -17.1557 0.0943788 -1.75143e-18
0.3202 0.0599102 0.5 -16.9712 0.145872 6.63821e-24
0.327394 0.0598346 0.5 -16.8334 0.194402 1.70265e-18
0.334592 0.0597382 0.5 -16.6798 0.23891 1.67897e-18
0.341788 0.059622 0.5 -16.5531 0.281361 -1.65846e-18
0.348891 0.0594882 0.5 -16.4393 0.323597 -1.64246e-21
0.355903 0.0593371 0.5 -16.2917 0.363526 8.16507e-22
0.362912 0.0591677 0.5 -16.1362 0.400104 -7.95705e-22
0.369915 0.058981 0.5 -16.0143 0.435495 -3.24005e-18
0.376908 0.0587783 0.5 -15.897 0.468129 7.77246e-22
0.383848 0.0585616 0.5 -15.7924 0.499693 3.20418e-18
0.39071 0.0583318 0.5 -15.6701 0.531461 -2.46854e-37
0.397536 0.0580877 0.5 -15.5402 0.560731 2.34523e-34
0.404349 0.0578293 0.5 -15.421 0.588361 3.12085e-18
0.411146 0.0575577 0.5 -15.3052 0.613724 3.08387e-18
0.417921 0.0572738 0.5 -15.2077 0.638219 -1.48038e-21
0.424635 0.05698 0.5 -15.1193 0.663331 1.50268e-21
0.431287 0.0566758 0.5 -15.0093 0.68745 -6.05272e-18
0.437919 0.0563599 0.5 -14.8879 0.708729 -1.35341e-21
0.444529 0.056033 0.5 -14.7834 0.729583 5.91901e-18
0.451115 0.055696 0.5 -14.6859 0.748937 -1.41969e-21
0.457672 0.0553498 0.5 -14.6054 0.767975 1.42633e-21
0.464179 0.0549959 0.5 -14.5199 0.787268 -1.40163e-21
0.47064 0.0546337 0.5 -14.4121 0.805026 1.1441e-17
0.477077 0.0542621 0.5 -14.3033 0.821275 1.50386e-21
0.483487 0.0538822 0.5 -14.2058 0.836966 -1.3771e-21
0.489866 0.0534947 0.5 -14.1168 0.851791 5.54027e-18
0.496211 0.0531004 0.5 -14.0358 0.865732 1.215e-21
0.50252 0.0526998 0.5 -13.962 0.880739 -1.03444e-36
0.508797 0.0522921 0.5 -13.8698 0.894965 -5.38522e-18
0.515045 0.0518774 0.5 -13.7728 0.90742 1.06521e-17
0.52126 0.0514563 0.5 -13.686 0.919698 1.45682e-22
0.52744 0.0510296 0.5 -13.6039 0.930944 -1.86843e-34
0.533582 0.0505981 0.5 -13.5301 0.94173 -1.25157e-21
0.539695 0.0501616 0.5 -13.4686 0.953271 5.10164e-18
0.545788 0.0497191 0.5 -13.3935 0.965043 1.2399e-21
0.551854 0.0492707 0.5 -13.3068 0.9748 -4.9856e-18
0.557885 0.0488177 0.5 -13.2261 0.984286 1.03444e-36
0.563876 0.0483607 0.5 -13.1501 0.99307 3.44383e-40
0.569827 0.0479005 0.5 -13.082 1.00164 1.17025e-21
0.575737 0.0474373 0.5 -13.0229 1.01014 4.78115e-18
0.58164 0.0469687 0.5 -12.9644 1.01969 1.15347e-21
0.587536 0.0464941 0.5 -12.8912 1.02807 -4.63472e-18
0.593393 0.0460162 0.5 -12.815 1.03532 -9.1726e-18
0.599208 0.0455357 0.5 -12.7449 1.04251 2.215e-21
0.60498 0.045053 0.5 -12.6809 1.04951 -1.10591e-21
0.610706 0.0445687 0.5 -12.6202 1.05599 -5.16575e-41
0.616408 0.0440814 0.5 -12.5699 1.06328 -8.98422e-22
0.622117 0.043588 0.5 -12.511 1.07105 1.94116e-23
0.627812 0.04309 0.5 -12.4389 1.07682 1.04113e-21
0.633463 0.0425903 0.5 -12.3725 1.0827 4.17403e-18
0.639069 0.0420895 0.5 -12.3107 1.08828 8.25101e-18
0.644626 0.0415881 0.5 -12.2545 1.0937 -4.07916e-18
0.650134 0.0410868 0.5 -12.2035 1.09893 9.94706e-22
0.655639 0.0405812 0.5 -12.1585 1.10501 -7.83577e-18
0.661165 0.0400689 0.5 -12.1002 1.11079 -1.08888e-21
0.666665 0.039554 0.5 -12.0321 1.11488 9.35975e-22
0.672117 0.0390389 0.5 -11.9689 1.11915 3.74257e-18
0.677519 0.038524 0.5 -11.9088 1.1231 -3.29138e-37
0.682868 0.0380099 0.5 -11.8518 1.1268 -1.04856e-21
0.688165 0.037497 0.5 -11.8012 1.13067 3.60017e-18
0.693484 0.0369779 0.5 -11.7528 1.13536 -8.32549e-22
0.698837 0.0364512 0.5 -11.6919 1.13935 3.39038e-18
0.704147 0.0359241 0.5 -11.6273 1.14237 3.33791e-18
0.709405 0.0353979 0.5 -11.5673 1.1455 -8.1251e-22
0.714609 0.0348733 0.5 -11.5112 1.14848 -7.78854e-22
0.719757 0.0343505 0.5 -11.4582 1.15124 -3.18108e-18
0.724855 0.0338293 0.5 -11.413 1.15446 -3.12137e-18
0.729999 0.0332999 0.5 -11.3669 1.15852 -5.91795e-18
0.73518 0.0327625 0.5 -11.3096 1.1616 8.46356e-37
0.740306 0.0322267 0.5 -11.2507 1.16406 -1.22251e-36
0.745375 0.0316932 0.5 -11.1933 1.16627 5.57863e-18
0.750386 0.0311622 0.5 -11.137 1.16812 2.73231e-18
0.755336 0.0306343 0.5 -11.0824 1.16965 2.67523e-18
0.76026 0.0301061 0.5 -11.0338 1.17162 2.58167e-18
0.765241 0.0295683 0.5 -10.9801 1.17417 9.87415e-36
0.770246 0.0290241 0.5 -10.9148 1.17529 -2.37555e-18
0.775191 0.0284829 0.5 -10.8502 1.17616 1.12847e-36
0.780073 0.027945 0.5 -10.7886 1.17696 2.24692e-18
0.784891 0.0274108 0.5 -10.7298 1.17764 -5.44067e-22
0.789645 0.0268807 0.5 -10.6743 1.17826 2.11403e-18
0.794414 0.0263459 0.5 -10.6234 1.1796 7.30141e-22
0.799254 0.0257999 0.5 -10.5633 1.18103 3.72888e-18
0.804082 0.0252514 0.5 -10.4947 1.18101 1.2208e-23
0.808843 0.0247071 0.5 -10.4298 1.18104 1.71484e-18
0.813536 0.0241673 0.5 -10.3686 1.18098 -1.17549e-38
0.81816 0.0236326 0.5 -10.3106 1.18079 1.55766e-18
0.822721 0.0231023 0.5 -10.2576 1.18079 7.6031e-35
0.827366 0.0225594 0.5 -10.2006 1.1814 1.52566e-22
0.832084 0.0220045 0.5 -10.1269 1.18047 -1.21663e-18
0.836729 0.0214548 0.5 -10.0507 1.17869 2.93874e-39
0.841299 0.0209107 0.5 -9.97736 1.17676 -1.03274e-18
0.845793 0.0203728 0.5 -9.90619 1.17448 -1.21252e-22
0.85021 0.0198415 0.5 -9.83959 1.17222 1.17549e-37
0.854677 0.0193015 0.5 -9.77688 1.17084 -6.93453e-19
0.859239 0.0187469 0.5 -9.70039 1.16898 -6.32337e-23
0.863766 0.0181934 0.5 -9.61483 1.16547 9.34628e-19
0.868209 0.0176469 0.5 -9.53287 1.162 3.53692e-19
0.872568 0.017108 0.5 -9.45367 1.15829 2.10492e-23
0.87684 0.0165772 0.5 -9.37788 1.15448 1.13015e-19
0.881165 0.0160373 0.5 -9.30468 1.1514 9.81324e-24
0.885597 0.0154808 0.5 -9.2164 1.14783 -9.74579e-24
0.889995 0.0149253 0.5 -9.11629 1.14206 6.09656e-36
0.894296 0.0143788 0.5 -9.02297 1.13657 2.35099e-38
0.8985 0.013842 0.5 -8.93112 1.13043 1.16153e-18
0.902612 0.0133146 0.5 -8.84842 1.1248 1.80059e-22
0.90685 0.0127685 0.5 -8.76157 1.11998 -9.1234e-23
0.911199 0.0122047 0.5 -8.65198 1.11297 -9.8977e-19
0.915436 0.0116524 0.5 -8.53843 1.10452 1.17345e-18
0.919558 0.0111121 0.5 -8.43199 1.09616 -1.76671e-22
0.923564 0.0105848 0.5 -8.33006 1.08741 -1.57068e-18
0.92766 0.0100432 0.5 -8.23211 1.07981 1.61929e-18
0.931889 0.00948105 0.5 -8.10882 1.07044 -7.87591e-23
0.936032 0.00892713 0.5 -7.9742 1.05858 -2.03811e-18
0.940034 0.00838932 0.5 -7.84669 1.04672 2.29358e-18
0.943918 0.00786528 0.5 -7.72579 1.03468 2.53885e-18
0.947957 0.00731753 0.5 -7.5993 1.02362 1.45174e-22
0.952111 0.00675118 0.5 -7.43306 1.00769 -2.78002e-18
0.956082 0.0062066 0.5 -7.27641 0.991749 1.84296e-22
0.959868 0.005685 0.5 -7.11319 0.973319 -3.49048e-18
0.963806 0.00514008 0.5 -6.9759 0.959825 6.58985e-18
0.967884 0.00457263 0.5 -6.73484 0.932942 3.67794e-18
0.971729 0.00403453 0.5 -6.58884 0.91749 -2.48749e-22
0.97552 0.00350184 0.5 -6.29045 0.878752 -8.47624e-18
0.979458 0.0029459 0.5 -6.24365 0.878386 1.36676e-22
0.983267 0.00240536 0.5 -5.64701 0.798165 -3.13938e-22
0.98706 0.00186472 0.5 -5.88205 0.835175 1.46967e-22
0.990882 0.00131704 0.5 -4.64293 0.664685 -7.17465e-43
0.994678 0.000770466 0.5 -5.70676 0.815497 1.72198e-22
0.99832 0.00024378 0.5 -1.76967 0.744109 6.18115e-18
0.00133235 0.00449653 0.5 -21.0823 -71.5618 1.40878e-16
0.00576479 0.0125392 0.5 -58.4957 -68.1578 1.41614e-16
0.0127073 0.018847 0.5 -48.8749 -35.9057 -2.22932e-17
0.0207688 0.0238748 0.5 -37.0375 -20.2575 -2.93432e-17
0.0291543 0.0279559 0.5 -30.2774 -13.4089 -2.83047e-17
0.037672 0.0313759 0.5 -26.2488 -9.81612 2.51736e-22
0.0464094 0.0343841 0.5 -24.4096 -7.88736 5.11983e-39
0.0551576 0.0370177 0.5 -23.835 -6.79195 -6.77085e-36
0.0639069 0.0393539 0.5 -23.2627 -5.89278 4.88724e-17
0.0727041 0.0414595 0.5 -23.4017 -5.33766 -1.36169e-34
0.081414 0.0433437 0.5 -23.2753 -4.8042 8.35824e-34
0.090183 0.0450639 0.5 -23.3862 -4.38655 -2.615e-17
0.098871 0.0466203 0.5 -23.5093 -4.02296 -2.82624e-17
0.107395 0.0480148 0.5 -23.6116 -3.70094 -8.47398e-22
0.116087 0.049318 0.5 -23.662 -3.39659 2.7523e-17
0.124618 0.0504925 0.5 -23.5371 -3.09726 -8.89287e-22
0.132994 0.0515502 0.5 -23.3523 -2.82695 5.71705e-17
0.141535 0.0525408 0.5 -22.9991 -2.55189 2.80873e-17
0.149928 0.053435 0.5 -22.6422 -2.30341 -9.03209e-22
0.158135 0.0542362 0.5 -22.2437 -2.07687 1.4603e-17
0.166435 0.0549791 0.5 -21.853 -1.86669 1.43267e-17
0.174718 0.0556571 0.5 -21.4805 -1.67469 -1.45312e-17
0.182824 0.0562624 0.5 -21.0998 -1.49794 9.07056e-22
0.190865 0.0568083 0.5 -20.7866 -1.34159 -4.43547e-22
0.198976 0.0573076 0.5 -20.434 -1.1921 -1.43875e-17
0.20712 0.0577564 0.5 -20.1721 -1.04203 7.12437e-18
0.215524 0.0581602 0.5 -19.449 -0.862766 -1.3385e-17
0.224086 0.0585239 0.5 -19.2525 -0.772745 1.80371e-23
0.231971 0.0588335 0.5 -19.1497 -0.726833 6.62038e-35
0.239768 0.0591111 0.5 -20.1921 -0.67695 6.6215e-18
0.246955 0.0592927 0.5 -17.4815 -0.260668 -3.4327e-23
0.00133235 -0.00449653 0.5 -21.0178 71.3404 1.39768e-16
0.00576479 -0.0125392 0.5 -58.1409 67.7198 -2.91089e-16
0.0127073 -0.018847 0.5 -48.3289 35.4925 -4.87362e-20
0.0207688 -0.0238748 0.5 -36.3639 19.877 5.42131e-17
0.0291543 -0.0279559 0.5 -29.6162 13.112 3.39319e-22
0.037672 -0.0313759 0.5 -26.3238 9.84281 3.62074e-17
0.0464094 -0.0343841 0.5 -24.7518 8.00649 4.30825e-17
0.0551576 -0.0370177 0.5 -23.8821 6.78974 -4.61825e-17
0.0639069 -0.0393539 0.5 -23.4481 5.95074 -4.94739e-17
0.0727041 -0.0414595 0.5 -23.1421 5.27301 2.11238e-23
0.081414 -0.0433437 0.5 -23.0673 4.76375 2.69287e-17
0.090183 -0.0450639 0.5 -23.1083 4.33302 2.61754e-17
0.098871 -0.0466203 0.5 -23.3299 3.99225 1.74303e-22
0.107395 -0.0480148 0.5 -23.4729 3.67885 5.56196e-17
0.116087 -0.049318 0.5 -23.5983 3.38714 8.39237e-22
0.124618 -0.0504925 0.5 -23.4983 3.09223 -8.89963e-22
0.132994 -0.0515502 0.5 -23.355 2.82699 -2.85342e-17
0.141535 -0.0525408 0.5 -23.0102 2.55341 -2.81298e-17
0.149928 -0.053435 0.5 -22.6696 2.30606 9.00009e-22
0.158135 -0.0542362 0.5 -22.2661 2.07936 -1.46238e-17
0.166435 -0.0549791 0.5 -21.8812 1.86904 -8.77469e-22
0.174718 -0.0556571 0.5 -21.5018 1.67677 -8.8356e-22
0.182824 -0.0562624 0.5 -21.1249 1.49974 -1.47862e-17
0.190865 -0.0568083 0.5 -20.8071 1.34337 4.43529e-22
0.198976 -0.0573076 0.5 -20.4553 1.19341 -1.43693e-17
0.20712 -0.0577564 0.5 -20.1927 1.04351 -4.34551e-22
0.215524 -0.0581602 0.5 -19.4635 0.863982 6.68542e-18
0.224086 -0.0585239 0.5 -19.2742 0.774203 6.60075e-18
0.231971 -0.0588335 0.5 -19.1467 0.726993 7.74034e-18
0.239768 -0.0591111 0.5 -20.2339 0.676927 6.61457e-18
0.246955 -0.0592927 0.5 -17.4742 0.263989 1.44262e-22
0.253478 -0.0594229 0.5 -16.6887 0.411606 0
0.260394 -0.0595984 0.5 -19.6273 0.49699 0
0.267845 -0.0597569 0.5 -18.7639 0.332297 0
0.275233 -0.059862 0.5 -17.936 0.189776 4.75045e-35
0.282135 -0.059923 0.5 -17.5437 0.136434 -1.58241e-37
0.289403 -0.0599678 0.5 -17.6046 0.0894011 4.21398e-22
0.296942 -0.0599937 0.5 -17.5217 0.0383388 -4.36605e-24
0.304465 -0.0599955 0.5 -17.4572 -0.0233941 -4.18676e-22
0.311708 -0.0599711 0.5 -17.2245 -0.0858146 8.96018e-19
0.318744 -0.0599229 0.5 -17.0071 -0.136451 -5.72586e-24
0.325783 -0.0598535 0.5 -16.883 -0.18518 -4.28102e-22
0.332827 -0.0597638 0.5 -16.7393 -0.22983 9.11008e-38
0.339871 -0.0596549 0.5 -16.6084 -0.271977 1.7016e-18
0.346848 -0.0595287 0.5 -16.4887 -0.312673 1.71084e-18
0.353736 -0.0593859 0.5 -16.363 -0.353631 -1.08992e-34
0.360596 -0.0592257 0.5 -16.2159 -0.390793 3.36634e-18
0.367453 -0.0590487 0.5 -16.0809 -0.425682 3.32615e-18
0.3743 -0.0588558 0.5 -15.9586 -0.458372 -2.82119e-37
0.381124 -0.0586486 0.5 -15.8629 -0.489932 -3.37723e-34
0.38787 -0.0584289 0.5 -15.7583 -0.521817 3.68481e-23
0.394554 -0.0581963 0.5 -15.6233 -0.551098 -2.11589e-37
0.401228 -0.0579495 0.5 -15.4998 -0.578916 -6.40806e-18
0.407888 -0.0576896 0.5 -15.3888 -0.605153 3.16929e-18
0.41453 -0.0574175 0.5 -15.2891 -0.629906 3.13289e-18
0.421133 -0.0571349 0.5 -15.2001 -0.65365 -3.11882e-18
0.427675 -0.0568427 0.5 -15.1012 -0.67832 4.23178e-37
0.434175 -0.0565398 0.5 -14.9829 -0.70046 1.96025e-34
0.440657 -0.0562259 0.5 -14.8778 -0.721827 -9.94938e-34
0.447118 -0.0559019 0.5 -14.7806 -0.741882 1.20461e-17
0.453553 -0.0555685 0.5 -14.6839 -0.760032 -7.3298e-22
0.459952 -0.0552271 0.5 -14.6114 -0.778883 5.91758e-18
0.466305 -0.054878 0.5 -14.5232 -0.797997 5.8876e-18
0.472621 -0.0545205 0.5 -14.4219 -0.815358 -5.82052e-18
0.478913 -0.0541543 0.5 -14.3255 -0.831739 -1.30569e-21
0.485178 -0.0537804 0.5 -14.2313 -0.846625 -4.78348e-38
0.491413 -0.0533994 0.5 -14.1506 -0.861312 1.14447e-22
0.497615 -0.0530121 0.5 -14.0796 -0.875383 -8.45174e-40
0.503783 -0.0526186 0.5 -14.0094 -0.890762 -1.26953e-36
0.509921 -0.0522183 0.5 -13.9194 -0.90455 -5.48951e-18
0.51603 -0.0518112 0.5 -13.8258 -0.916768 5.43023e-18
0.522108 -0.0513982 0.5 -13.7427 -0.928793 5.37766e-18
0.528152 -0.05098 0.5 -13.6666 -0.940126 5.32457e-18
0.534159 -0.0505573 0.5 -13.597 -0.950819 -2.00316e-23
0.54014 -0.0501296 0.5 -13.5397 -0.962459 -1.28087e-21
0.546102 -0.0496961 0.5 -13.4661 -0.97409 -5.14486e-18
0.552038 -0.0492571 0.5 -13.3788 -0.983469 5.09027e-18
0.557939 -0.0488136 0.5 -13.3018 -0.993076 -5.04024e-18
0.563803 -0.0483664 0.5 -13.2287 -1.00189 1.22805e-21
0.569628 -0.047916 0.5 -13.1618 -1.0103 -4.94087e-18
0.575412 -0.047463 0.5 -13.1054 -1.01883 2.3896e-21
0.58119 -0.0470047 0.5 -13.0479 -1.02801 -1.92545e-23
0.586964 -0.0465405 0.5 -12.9757 -1.03634 -1.16715e-21
0.5927 -0.0460731 0.5 -12.9013 -1.04372 -1.13507e-21
0.598397 -0.0456031 0.5 -12.8321 -1.05089 1.00722e-21
0.604052 -0.045131 0.5 -12.7674 -1.05769 -2.36086e-34
0.609664 -0.0446572 0.5 -12.7079 -1.06425 -4.5473e-18
0.615243 -0.0441814 0.5 -12.656 -1.07099 2.40271e-34
0.620829 -0.0436999 0.5 -12.5993 -1.07851 4.37522e-18
0.626413 -0.0432129 0.5 -12.5291 -1.08461 1.99562e-23
0.631955 -0.0427242 0.5 -12.4617 -1.09039 -4.27631e-18
0.637454 -0.0422343 0.5 -12.397 -1.09567 -1.02233e-21
0.642907 -0.0417437 0.5 -12.3394 -1.10102 -4.17958e-18
0.648313 -0.041253 0.5 -12.2853 -1.10598 9.99708e-22
0.653694 -0.0407603 0.5 -12.2386 -1.11124 -4.05706e-18
0.659096 -0.0402614 0.5 -12.1881 -1.1175 9.72521e-22
0.664496 -0.0397577 0.5 -12.1248 -1.12216 3.89327e-18
0.669852 -0.0392536 0.5 -12.0653 -1.12681 -3.8434e-18
0.675159 -0.0387495 0.5 -12.0072 -1.13101 3.79434e-18
0.680418 -0.0382459 0.5 -11.9529 -1.1351 -3.74573e-18
0.685626 -0.0377433 0.5 -11.8994 -1.13868 -3.70037e-18
0.690816 -0.0372389 0.5 -11.8518 -1.14266 -1.26953e-36
0.696038 -0.0367272 0.5 -11.798 -1.14726 -6.93736e-35
0.701263 -0.0362109 0.5 -11.7323 -1.15029 7.99336e-37
0.706438 -0.0356954 0.5 -11.6698 -1.1533 3.38619e-18
0.711561 -0.035181 0.5 -11.6089 -1.1559 -3.33442e-18
0.716633 -0.0346682 0.5 -11.553 -1.15858 -3.28311e-18
0.72165 -0.0341574 0.5 -11.4993 -1.16092 1.57811e-21
0.726654 -0.0336446 0.5 -11.4516 -1.16378 3.12625e-18
0.731704 -0.0331235 0.5 -11.3981 -1.16727 -3.00532e-18
0.736758 -0.032598 0.5 -11.3329 -1.16916 1.6163e-38
0.741759 -0.0320742 0.5 -11.2718 -1.17119 -2.89225e-18
0.746705 -0.0315527 0.5 -11.2116 -1.17275 3.51548e-22
0.751594 -0.0310337 0.5 -11.1565 -1.17448 9.36653e-35
0.756425 -0.0305178 0.5 -11.1041 -1.17598 3.26623e-22
0.761255 -0.029999 0.5 -11.0566 -1.17797 -3.22942e-22
0.766142 -0.0294707 0.5 -11.0032 -1.18052 2.48e-18
0.771031 -0.0289385 0.5 -10.9396 -1.18161 -2.41658e-18
0.775861 -0.0284092 0.5 -10.8798 -1.18284 -2.81412e-22
0.780632 -0.0278832 0.5 -10.8216 -1.18378 7.06473e-22
0.785341 -0.0273608 0.5 -10.767 -1.18474 -1.16529e-23
0.789989 -0.0268423 0.5 -10.7161 -1.18571 -2.68936e-22
0.79466 -0.0263184 0.5 -10.6678 -1.18723 -2.01008e-18
0.799401 -0.0257833 0.5 -10.6073 -1.18846 -2.26204e-22
0.804125 -0.0252465 0.5 -10.5373 -1.18817 2.29261e-22
0.808785 -0.0247137 0.5 -10.47 -1.18779 1.88079e-37
0.81338 -0.0241853 0.5 -10.4046 -1.18712 -1.67452e-18
0.817908 -0.0236617 0.5 -10.3413 -1.18618 1.59587e-18
0.822369 -0.0231434 0.5 -10.2842 -1.18555 1.51533e-18
0.826908 -0.0226131 0.5 -10.2262 -1.18571 -1.26939e-23
0.831528 -0.0220701 0.5 -10.153 -1.18475 1.25349e-18
0.836084 -0.0215313 0.5 -10.0763 -1.18282 -7.05297e-38
0.840568 -0.0209979 0.5 -10.0033 -1.18086 1.23826e-22
0.844979 -0.0204704 0.5 -9.93307 -1.17866 9.74602e-19
0.849317 -0.0199491 0.5 -9.86614 -1.1763 1.00102e-22
0.853667 -0.0194238 0.5 -9.80537 -1.17469 -9.78455e-23
0.858113 -0.0188842 0.5 -9.73456 -1.1733 -6.42119e-35
0.862564 -0.0183407 0.5 -9.6509 -1.17002 -2.40153e-35
0.866936 -0.0178038 0.5 -9.56948 -1.16659 -3.95068e-19
0.871227 -0.0172741 0.5 -9.49149 -1.16306 -1.17549e-38
0.875436 -0.016752 0.5 -9.41469 -1.15911 -1.57012e-19
0.879628 -0.0162295 0.5 -9.34549 -1.15596 5.57213e-20
0.88393 -0.0156905 0.5 -9.26502 -1.15297 9.65854e-20
0.88827 -0.0151435 0.5 -9.16853 -1.14782 -2.33306e-19
0.892518 -0.014605 0.5 -9.07479 -1.14239 -5.43706e-23
0.896674 -0.0140755 0.5 -8.98431 -1.13663 -1.71674e-23
0.900735 -0.0135557 0.5 -8.89728 -1.13056 -6.80925e-19
0.904824 -0.01303 0.5 -8.81792 -1.12554 -4.70198e-38
0.909034 -0.0124858 0.5 -8.72181 -1.1202 1.84469e-18
0.913238 -0.0119394 0.5 -8.60807 -1.11198 -1.10101e-18
0.917332 -0.0114042 0.5 -8.5021 -1.10403 1.2886e-18
0.921316 -0.010881 0.5 -8.39697 -1.09522 -1.48636e-18
0.925241 -0.0103633 0.5 -8.30283 -1.08718 9.58437e-23
0.929306 -0.00982488 0.5 -8.19786 -1.07951 1.69788e-18
0.933445 -0.00927338 0.5 -8.06717 -1.06866 -1.92648e-18
0.937451 -0.00873681 0.5 -7.93912 -1.05723 -2.17284e-18
0.941321 -0.00821597 0.5 -7.81362 -1.04508 1.43065e-22
0.945168 -0.00769601 0.5 -7.69729 -1.03363 -2.56213e-18
0.949167 -0.00715299 0.5 -7.56285 -1.02195 2.61301e-18
0.953183 -0.00660441 0.5 -7.39533 -1.00526 2.93118e-18
0.957024 -0.006077 0.5 -7.24439 -0.989597 3.28125e-18
0.960743 -0.00556416 0.5 -7.08621 -0.971486 -6.24481e-39
0.964631 -0.00502557 0.5 -6.94483 -0.957982 3.41326e-18
0.968598 -0.00447292 0.5 -6.69984 -0.929967 -2.43027e-22
0.972318 -0.00395183 0.5 -6.56421 -0.915441 2.59687e-22
0.976051 -0.00342699 0.5 -6.26649 -0.876813 2.70925e-22
0.979926 -0.00287974 0.5 -6.21975 -0.876359 -4.59588e-18
0.983612 -0.00235633 0.5 -5.62932 -0.796498 2.61831e-18
0.987331 -0.00182587 0.5 -5.86938 -0.834265 3.04098e-22
0.991079 -0.00128868 0.5 -4.62102 -0.661877 1.41205e-23
0.994786 -0.000754822 0.5 -5.69706 -0.81478 6.14067e-18
0.998359 -0.000238135 0.5 -1.77976 -0.750282 5.64237e-37
