/*--------------------------------*- C++ -*----------------------------------*\
  =========                 |
  \\      /  F ield         | OpenFOAM: The Open Source CFD Toolbox
   \\    /   O peration     | Website:  https://openfoam.org
    \\  /    A nd           | Version:  7
     \\/     M anipulation  |
\*---------------------------------------------------------------------------*/
FoamFile
{
    version     2.0;
    format      ascii;
    class       volScalarField;
    location    "0";
    object      yPlus;
}
// * * * * * * * * * * * * * * * * * * * * * * * * * * * * * * * * * * * * * //

dimensions      [0 0 0 0 0 0 0];

internalField   uniform 0;

boundaryField
{
    frontAndBack
    {
        type            empty;
    }
    farfield
    {
        type            calculated;
        value           uniform 0;
    }
    airfoil
    {
        type            calculated;
        value           nonuniform List<scalar> 
341
(
2.273
2.27199
2.2716
2.27172
2.27107
2.26983
2.26892
2.2683
2.26743
2.26667
2.26594
2.26486
2.26389
2.2633
2.26251
2.26155
2.26095
2.26026
2.25931
2.2587
2.25837
2.25788
2.25711
2.25643
2.25611
2.25592
2.25547
2.25504
2.25475
2.25447
2.25418
2.25398
2.25388
2.25387
2.25374
2.25339
2.25318
2.25332
2.25351
2.25358
2.25344
2.25325
2.25315
2.25345
2.25373
2.25383
2.2538
2.25378
2.25376
2.254
2.25432
2.25447
2.25458
2.25469
2.2548
2.25496
2.25531
2.25556
2.25577
2.25597
2.25614
2.25629
2.25647
2.25679
2.25704
2.25728
2.2575
2.25771
2.2579
2.25814
2.25846
2.25874
2.259
2.25924
2.25945
2.25965
2.25995
2.26028
2.26057
2.26083
2.26107
2.26128
2.26148
2.26184
2.26219
2.26246
2.26271
2.26294
2.26314
2.26339
2.26382
2.2642
2.26448
2.26472
2.26491
2.26508
2.26538
2.26579
2.26616
2.26644
2.26663
2.26678
2.26697
2.26732
2.26765
2.26794
2.26819
2.26838
2.26856
2.26889
2.26919
2.26944
2.26965
2.2698
2.27005
2.27036
2.27059
2.27076
2.27088
2.27103
2.27131
2.27153
2.27169
2.27177
2.27193
2.27215
2.2723
2.27239
2.27252
2.27269
2.27278
2.27282
2.27294
2.27302
2.27306
2.27313
2.27316
2.27319
2.23746
2.0537
1.93102
1.89247
1.8956
1.91832
1.96321
2.00981
2.04992
2.0902
2.12468
2.15324
2.17769
2.19758
2.21425
2.22764
2.23933
2.24844
2.25614
2.26252
2.26756
2.27156
2.27456
2.2769
2.27826
2.27883
2.27851
2.27876
2.2782
2.27622
2.27354
2.22442
2.01937
1.89286
1.86054
1.88798
1.93447
1.98001
2.02057
2.0588
2.09807
2.13159
2.15944
2.18318
2.20256
2.2187
2.2317
2.24297
2.25176
2.25911
2.26519
2.26992
2.27365
2.27636
2.27844
2.27953
2.27988
2.27937
2.27932
2.27838
2.27643
2.27368
2.27212
2.27158
2.27144
2.27171
2.27141
2.27053
2.26961
2.26943
2.2691
2.26824
2.26784
2.26743
2.26665
2.26595
2.26575
2.26537
2.26466
2.26408
2.26375
2.26345
2.26294
2.26251
2.26228
2.26203
2.26152
2.26116
2.26102
2.26102
2.26083
2.26038
2.26
2.26
2.26016
2.26011
2.25983
2.25961
2.25946
2.2596
2.25974
2.25966
2.25958
2.25954
2.25954
2.25956
2.25968
2.25972
2.25977
2.25985
2.25995
2.25994
2.25995
2.26007
2.26021
2.26036
2.26053
2.26063
2.26058
2.26069
2.26091
2.26112
2.26133
2.26153
2.26158
2.26151
2.26167
2.2619
2.26213
2.26235
2.26253
2.26259
2.26258
2.26278
2.26302
2.26326
2.26349
2.26368
2.26375
2.26377
2.26397
2.26422
2.26445
2.26467
2.26488
2.26498
2.26502
2.26522
2.26546
2.26568
2.26589
2.26609
2.26623
2.26635
2.26659
2.26682
2.26703
2.26722
2.26739
2.26753
2.26773
2.26797
2.26818
2.26835
2.2685
2.26863
2.26876
2.26903
2.26927
2.26943
2.26957
2.26968
2.26979
2.27004
2.27032
2.27053
2.27066
2.27074
2.27082
2.27105
2.27126
2.27143
2.27155
2.27161
2.27175
2.27192
2.27205
2.27214
2.27222
2.27238
2.27251
2.27259
2.27263
2.27275
2.27288
2.27294
2.27295
2.27304
2.27309
2.27312
2.27317
2.27318
2.2732
)
;
    }
}


// ************************************************************************* //
