# p  FACE_DATA 341
#  x  y  z  p
0.253551 0.0594249 0.5 -1017.48
0.260625 0.059604 0.5 -1057.02
0.268301 0.0597641 0.5 -1091.69
0.275825 0.0598682 0.5 -1073.06
0.282831 0.059928 0.5 -1044.12
0.290299 0.0599719 0.5 -1032.18
0.298014 0.0599954 0.5 -1022.82
0.305661 0.0599931 0.5 -1015.16
0.313016 0.0599637 0.5 -1004.42
0.3202 0.0599102 0.5 -990.898
0.327394 0.0598346 0.5 -978.843
0.334592 0.0597382 0.5 -966.757
0.341788 0.059622 0.5 -954.541
0.348891 0.0594882 0.5 -943.146
0.355903 0.0593371 0.5 -932.061
0.362912 0.0591677 0.5 -919.81
0.369915 0.058981 0.5 -907.499
0.376908 0.0587783 0.5 -895.696
0.383848 0.0585616 0.5 -884.185
0.39071 0.0583318 0.5 -873.259
0.397536 0.0580877 0.5 -861.555
0.404349 0.0578293 0.5 -849.921
0.411146 0.0575577 0.5 -838.162
0.417921 0.0572738 0.5 -826.603
0.424635 0.05698 0.5 -815.593
0.431287 0.0566758 0.5 -804.927
0.437919 0.0563599 0.5 -793.61
0.444529 0.056033 0.5 -782.139
0.451115 0.055696 0.5 -770.832
0.457672 0.0553498 0.5 -759.762
0.464179 0.0549959 0.5 -749.366
0.47064 0.0546337 0.5 -738.862
0.477077 0.0542621 0.5 -727.966
0.483487 0.0538822 0.5 -716.984
0.489866 0.0534947 0.5 -706.206
0.496211 0.0531004 0.5 -695.615
0.50252 0.0526998 0.5 -685.385
0.508797 0.0522921 0.5 -675.347
0.515045 0.0518774 0.5 -664.88
0.52126 0.0514563 0.5 -654.401
0.52744 0.0510296 0.5 -643.989
0.533582 0.0505981 0.5 -633.734
0.539695 0.0501616 0.5 -623.75
0.545788 0.0497191 0.5 -614.144
0.551854 0.0492707 0.5 -604.21
0.557885 0.0488177 0.5 -594.176
0.563876 0.0483607 0.5 -584.131
0.569827 0.0479005 0.5 -574.224
0.575737 0.0474373 0.5 -564.519
0.58164 0.0469687 0.5 -555.118
0.587536 0.0464941 0.5 -545.739
0.593393 0.0460162 0.5 -536.123
0.599208 0.0455357 0.5 -526.473
0.60498 0.045053 0.5 -516.899
0.610706 0.0445687 0.5 -507.483
0.616408 0.0440814 0.5 -498.186
0.622117 0.043588 0.5 -489.172
0.627812 0.04309 0.5 -479.891
0.633463 0.0425903 0.5 -470.472
0.639069 0.0420895 0.5 -461.073
0.644626 0.0415881 0.5 -451.765
0.650134 0.0410868 0.5 -442.596
0.655639 0.0405812 0.5 -433.567
0.661165 0.0400689 0.5 -424.683
0.666665 0.039554 0.5 -415.54
0.672117 0.0390389 0.5 -406.339
0.677519 0.038524 0.5 -397.175
0.682868 0.0380099 0.5 -388.105
0.688165 0.037497 0.5 -379.136
0.693484 0.0369779 0.5 -370.269
0.698837 0.0364512 0.5 -361.358
0.704147 0.0359241 0.5 -352.265
0.709405 0.0353979 0.5 -343.165
0.714609 0.0348733 0.5 -334.113
0.719757 0.0343505 0.5 -325.152
0.724855 0.0338293 0.5 -316.27
0.729999 0.0332999 0.5 -307.461
0.73518 0.0327625 0.5 -298.476
0.740306 0.0322267 0.5 -289.332
0.745375 0.0316932 0.5 -280.172
0.750386 0.0311622 0.5 -271.05
0.755336 0.0306343 0.5 -262.009
0.76026 0.0301061 0.5 -253
0.765241 0.0295683 0.5 -244.006
0.770246 0.0290241 0.5 -234.778
0.775191 0.0284829 0.5 -225.429
0.780073 0.027945 0.5 -216.079
0.784891 0.0274108 0.5 -206.769
0.789645 0.0268807 0.5 -197.528
0.794414 0.0263459 0.5 -188.234
0.799254 0.0257999 0.5 -178.837
0.804082 0.0252514 0.5 -169.146
0.808843 0.0247071 0.5 -159.373
0.813536 0.0241673 0.5 -149.597
0.81816 0.0236326 0.5 -139.872
0.822721 0.0231023 0.5 -130.195
0.827366 0.0225594 0.5 -120.391
0.832084 0.0220045 0.5 -110.249
0.836729 0.0214548 0.5 -99.9071
0.841299 0.0209107 0.5 -89.5568
0.845793 0.0203728 0.5 -79.2158
0.85021 0.0198415 0.5 -68.9388
0.854677 0.0193015 0.5 -58.4891
0.859239 0.0187469 0.5 -47.7886
0.863766 0.0181934 0.5 -36.7418
0.868209 0.0176469 0.5 -25.6494
0.872568 0.017108 0.5 -14.5604
0.87684 0.0165772 0.5 -3.54231
0.881165 0.0160373 0.5 7.74999
0.885597 0.0154808 0.5 19.4081
0.889995 0.0149253 0.5 31.5091
0.894296 0.0143788 0.5 43.6704
0.8985 0.013842 0.5 55.7949
0.902612 0.0133146 0.5 67.8911
0.90685 0.0127685 0.5 80.3993
0.911199 0.0122047 0.5 93.5835
0.915436 0.0116524 0.5 107.018
0.919558 0.0111121 0.5 120.422
0.923564 0.0105848 0.5 133.742
0.92766 0.0100432 0.5 147.55
0.931889 0.00948105 0.5 162.015
0.936032 0.00892713 0.5 176.953
0.940034 0.00838932 0.5 191.786
0.943918 0.00786528 0.5 206.609
0.947957 0.00731753 0.5 222.163
0.952111 0.00675118 0.5 238.798
0.956082 0.0062066 0.5 255.498
0.959868 0.005685 0.5 271.976
0.963806 0.00514008 0.5 289.409
0.967884 0.00457263 0.5 308.102
0.971729 0.00403453 0.5 326.909
0.97552 0.00350184 0.5 346.094
0.979458 0.0029459 0.5 366.599
0.983267 0.00240536 0.5 387.288
0.98706 0.00186472 0.5 410.909
0.990882 0.00131704 0.5 430.927
0.994678 0.000770466 0.5 465.607
0.99832 0.00024378 0.5 468.749
0.00133235 0.00449653 0.5 3724.5
0.00576479 0.0125392 0.5 1725
0.0127073 0.018847 0.5 280.11
0.0207688 0.0238748 0.5 -336.295
0.0291543 0.0279559 0.5 -650.521
0.037672 0.0313759 0.5 -862.104
0.0464094 0.0343841 0.5 -975.821
0.0551576 0.0370177 0.5 -1065.49
0.0639069 0.0393539 0.5 -1123.47
0.0727041 0.0414595 0.5 -1161.16
0.081414 0.0433437 0.5 -1191.9
0.090183 0.0450639 0.5 -1210.88
0.098871 0.0466203 0.5 -1226.38
0.107395 0.0480148 0.5 -1233.77
0.116087 0.049318 0.5 -1241.29
0.124618 0.0504925 0.5 -1243.65
0.132994 0.0515502 0.5 -1245.21
0.141535 0.0525408 0.5 -1246.6
0.149928 0.053435 0.5 -1246.76
0.158135 0.0542362 0.5 -1246.1
0.166435 0.0549791 0.5 -1235.41
0.174718 0.0556571 0.5 -1215.65
0.182824 0.0562624 0.5 -1192.33
0.190865 0.0568083 0.5 -1171.55
0.198976 0.0573076 0.5 -1154.52
0.20712 0.0577564 0.5 -1145.35
0.215524 0.0581602 0.5 -1137.38
0.224086 0.0585239 0.5 -1112.81
0.231971 0.0588335 0.5 -1107.38
0.239768 0.0591111 0.5 -1109.76
0.246955 0.0592927 0.5 -1153.48
0.00133235 -0.00449653 0.5 3725.68
0.00576479 -0.0125392 0.5 1735.51
0.0127073 -0.018847 0.5 273.775
0.0207688 -0.0238748 0.5 -337.536
0.0291543 -0.0279559 0.5 -651.947
0.037672 -0.0313759 0.5 -850.533
0.0464094 -0.0343841 0.5 -983.609
0.0551576 -0.0370177 0.5 -1066.37
0.0639069 -0.0393539 0.5 -1120.54
0.0727041 -0.0414595 0.5 -1161.73
0.081414 -0.0433437 0.5 -1191.48
0.090183 -0.0450639 0.5 -1211.39
0.098871 -0.0466203 0.5 -1225.87
0.107395 -0.0480148 0.5 -1234.42
0.116087 -0.049318 0.5 -1241.04
0.124618 -0.0504925 0.5 -1244.34
0.132994 -0.0515502 0.5 -1245.15
0.141535 -0.0525408 0.5 -1247.6
0.149928 -0.053435 0.5 -1247.11
0.158135 -0.0542362 0.5 -1246.3
0.166435 -0.0549791 0.5 -1233.27
0.174718 -0.0556571 0.5 -1213.42
0.182824 -0.0562624 0.5 -1188.03
0.190865 -0.0568083 0.5 -1167.71
0.198976 -0.0573076 0.5 -1152.38
0.20712 -0.0577564 0.5 -1146.21
0.215524 -0.0581602 0.5 -1138.11
0.224086 -0.0585239 0.5 -1113.94
0.231971 -0.0588335 0.5 -1107.8
0.239768 -0.0591111 0.5 -1109.68
0.246955 -0.0592927 0.5 -1154.36
0.253478 -0.0594229 0.5 -1017.73
0.260394 -0.0595984 0.5 -1056.84
0.267845 -0.0597569 0.5 -1090.78
0.275233 -0.059862 0.5 -1075.32
0.282135 -0.059923 0.5 -1045.51
0.289403 -0.0599678 0.5 -1033.51
0.296942 -0.0599937 0.5 -1024.19
0.304465 -0.0599955 0.5 -1015.8
0.311708 -0.0599711 0.5 -1006.83
0.318744 -0.0599229 0.5 -993.315
0.325783 -0.0598535 0.5 -981.121
0.332827 -0.0597638 0.5 -969.436
0.339871 -0.0596549 0.5 -957.643
0.346848 -0.0595287 0.5 -946.149
0.353736 -0.0593859 0.5 -935.098
0.360596 -0.0592257 0.5 -923.632
0.367453 -0.0590487 0.5 -911.615
0.3743 -0.0588558 0.5 -899.747
0.381124 -0.0586486 0.5 -888.06
0.38787 -0.0584289 0.5 -877.514
0.394554 -0.0581963 0.5 -866.401
0.401228 -0.0579495 0.5 -854.78
0.407888 -0.0576896 0.5 -843.187
0.41453 -0.0574175 0.5 -831.859
0.421133 -0.0571349 0.5 -820.89
0.427675 -0.0568427 0.5 -810.421
0.434175 -0.0565398 0.5 -799.534
0.440657 -0.0562259 0.5 -788.287
0.447118 -0.0559019 0.5 -777.304
0.453553 -0.0555685 0.5 -766.333
0.459952 -0.0552271 0.5 -755.603
0.466305 -0.054878 0.5 -745.567
0.472621 -0.0545205 0.5 -735.059
0.478913 -0.0541543 0.5 -724.511
0.485178 -0.0537804 0.5 -713.799
0.491413 -0.0533994 0.5 -703.235
0.497615 -0.0530121 0.5 -692.921
0.503783 -0.0526186 0.5 -683.055
0.509921 -0.0522183 0.5 -673.204
0.51603 -0.0518112 0.5 -662.932
0.522108 -0.0513982 0.5 -652.618
0.528152 -0.05098 0.5 -642.425
0.534159 -0.0505573 0.5 -632.426
0.54014 -0.0501296 0.5 -622.701
0.546102 -0.0496961 0.5 -613.366
0.552038 -0.0492571 0.5 -603.584
0.557939 -0.0488136 0.5 -593.698
0.563803 -0.0483664 0.5 -583.883
0.569628 -0.047916 0.5 -574.181
0.575412 -0.047463 0.5 -564.697
0.58119 -0.0470047 0.5 -555.528
0.586964 -0.0465405 0.5 -546.34
0.5927 -0.0460731 0.5 -536.92
0.598397 -0.0456031 0.5 -527.492
0.604052 -0.045131 0.5 -518.122
0.609664 -0.0446572 0.5 -508.897
0.615243 -0.0441814 0.5 -499.821
0.620829 -0.0436999 0.5 -490.965
0.626413 -0.0432129 0.5 -481.933
0.631955 -0.0427242 0.5 -472.73
0.637454 -0.0422343 0.5 -463.546
0.642907 -0.0417437 0.5 -454.392
0.648313 -0.041253 0.5 -445.435
0.653694 -0.0407603 0.5 -436.537
0.659096 -0.0402614 0.5 -427.86
0.664496 -0.0397577 0.5 -418.984
0.669852 -0.0392536 0.5 -409.998
0.675159 -0.0387495 0.5 -401.029
0.680418 -0.0382459 0.5 -392.118
0.685626 -0.0377433 0.5 -383.345
0.690816 -0.0372389 0.5 -374.612
0.696038 -0.0367272 0.5 -366.012
0.701263 -0.0362109 0.5 -357.186
0.706438 -0.0356954 0.5 -348.265
0.711561 -0.035181 0.5 -339.36
0.716633 -0.0346682 0.5 -330.501
0.72165 -0.0341574 0.5 -321.766
0.726654 -0.0336446 0.5 -313.043
0.731704 -0.0331235 0.5 -304.398
0.736758 -0.032598 0.5 -295.506
0.741759 -0.0320742 0.5 -286.522
0.746705 -0.0315527 0.5 -277.56
0.751594 -0.0310337 0.5 -268.62
0.756425 -0.0305178 0.5 -259.808
0.761255 -0.029999 0.5 -250.965
0.766142 -0.0294707 0.5 -242.133
0.771031 -0.0289385 0.5 -233.04
0.775861 -0.0284092 0.5 -223.877
0.780632 -0.0278832 0.5 -214.726
0.785341 -0.0273608 0.5 -205.608
0.789989 -0.0268423 0.5 -196.568
0.79466 -0.0263184 0.5 -187.47
0.799401 -0.0257833 0.5 -178.253
0.804125 -0.0252465 0.5 -168.738
0.808785 -0.0247137 0.5 -159.164
0.81338 -0.0241853 0.5 -149.594
0.817908 -0.0236617 0.5 -140.072
0.822369 -0.0231434 0.5 -130.601
0.826908 -0.0226131 0.5 -121.021
0.831528 -0.0220701 0.5 -111.126
0.836084 -0.0215313 0.5 -101.007
0.840568 -0.0209979 0.5 -90.8606
0.844979 -0.0204704 0.5 -80.7307
0.849317 -0.0199491 0.5 -70.6596
0.853667 -0.0194238 0.5 -60.473
0.858113 -0.0188842 0.5 -50.101
0.862564 -0.0183407 0.5 -39.3369
0.866936 -0.0178038 0.5 -28.473
0.871227 -0.0172741 0.5 -17.6126
0.875436 -0.016752 0.5 -6.8015
0.879628 -0.0162295 0.5 4.13692
0.88393 -0.0156905 0.5 15.3412
0.88827 -0.0151435 0.5 27.1129
0.892518 -0.014605 0.5 39.0008
0.896674 -0.0140755 0.5 50.8911
0.900735 -0.0135557 0.5 62.7291
0.904824 -0.01303 0.5 74.8296
0.909034 -0.0124858 0.5 87.3129
0.913238 -0.0119394 0.5 100.399
0.917332 -0.0114042 0.5 113.544
0.921316 -0.010881 0.5 126.617
0.925241 -0.0103633 0.5 139.789
0.929306 -0.00982488 0.5 153.46
0.933445 -0.00927338 0.5 167.946
0.937451 -0.00873681 0.5 182.55
0.941321 -0.00821597 0.5 197.024
0.945168 -0.00769601 0.5 211.806
0.949167 -0.00715299 0.5 227.249
0.953183 -0.00660441 0.5 243.628
0.957024 -0.006077 0.5 259.903
0.960743 -0.00556416 0.5 276.21
0.964631 -0.00502557 0.5 293.42
0.968598 -0.00447292 0.5 311.886
0.972318 -0.00395183 0.5 330.198
0.976051 -0.00342699 0.5 349.133
0.979926 -0.00287974 0.5 369.416
0.983612 -0.00235633 0.5 389.611
0.987331 -0.00182587 0.5 412.802
0.991079 -0.00128868 0.5 432.53
0.994786 -0.000754822 0.5 466.576
0.998359 -0.000238135 0.5 469.477
