# wallShearStress  FACE_DATA 341
#  x  y  z  wallShearStress_x  wallShearStress_y  wallShearStress_z  
0.253551 0.0594249 0.5 -18.1656 -0.451313 3.64951e-18
0.260625 0.059604 0.5 -20.33 -0.511196 -3.82197e-18
0.268301 0.0597641 0.5 -20.0627 -0.342627 3.34926e-18
0.275825 0.0598682 0.5 -18.9158 -0.19465 -1.01379e-18
0.282831 0.059928 0.5 -18.4435 -0.139126 -9.15308e-19
0.290299 0.0599719 0.5 -18.4238 -0.0875177 4.47981e-35
0.298014 0.0599954 0.5 -18.3524 -0.0312713 -2.10318e-19
0.305661 0.0599931 0.5 -18.1699 0.035503 -4.28518e-19
0.313016 0.0599637 0.5 -17.887 0.0991615 -8.91974e-19
0.3202 0.0599102 0.5 -17.6497 0.152119 8.77574e-19
0.327394 0.0598346 0.5 -17.4719 0.202234 4.25714e-22
0.334592 0.0597382 0.5 -17.2999 0.248487 1.7121e-18
0.341788 0.059622 0.5 -17.1476 0.292078 -1.69059e-18
0.348891 0.0594882 0.5 -17.0074 0.335314 -9.94957e-24
0.355903 0.0593371 0.5 -16.8414 0.376498 -8.31975e-22
0.362912 0.0591677 0.5 -16.6694 0.414106 8.11042e-22
0.369915 0.058981 0.5 -16.5216 0.449862 -6.60745e-18
0.376908 0.0587783 0.5 -16.3805 0.483071 4.34933e-37
0.383848 0.0585616 0.5 -16.2445 0.514622 -3.26647e-18
0.39071 0.0583318 0.5 -16.0926 0.54654 -1.03158e-23
0.397536 0.0580877 0.5 -15.9321 0.575591 -7.90845e-22
0.404349 0.0578293 0.5 -15.7799 0.602659 3.18133e-18
0.411146 0.0575577 0.5 -15.6397 0.627837 -3.14574e-18
0.417921 0.0572738 0.5 -15.5177 0.651862 4.34933e-37
0.424635 0.05698 0.5 -15.4064 0.67649 -6.233e-18
0.431287 0.0566758 0.5 -15.2787 0.700441 -6.17142e-18
0.437919 0.0563599 0.5 -15.1425 0.721579 1.0981e-22
0.444529 0.056033 0.5 -15.0183 0.741731 -6.03438e-18
0.451115 0.055696 0.5 -14.9064 0.760829 -1.69271e-36
0.457672 0.0553498 0.5 -14.8106 0.779316 5.91363e-18
0.464179 0.0549959 0.5 -14.7132 0.79831 -2.8772e-21
0.47064 0.0546337 0.5 -14.5992 0.816199 1.16631e-17
0.477077 0.0542621 0.5 -14.4812 0.832146 5.76416e-18
0.483487 0.0538822 0.5 -14.3743 0.84748 2.78604e-21
0.489866 0.0534947 0.5 -14.277 0.862028 -2.09031e-23
0.496211 0.0531004 0.5 -14.1899 0.875863 -1.11863e-17
0.50252 0.0526998 0.5 -14.1074 0.890438 -1.36315e-21
0.508797 0.0522921 0.5 -14.0103 0.90469 5.48516e-18
0.515045 0.0518774 0.5 -13.907 0.916941 5.42801e-18
0.52126 0.0514563 0.5 -13.8102 0.928587 5.36851e-18
0.52744 0.0510296 0.5 -13.7206 0.939518 5.31508e-18
0.533582 0.0505981 0.5 -13.6397 0.949966 -4.73959e-35
0.539695 0.0501616 0.5 -13.5684 0.960817 -1.08145e-36
0.545788 0.0497191 0.5 -13.4867 0.972348 5.13347e-18
0.551854 0.0492707 0.5 -13.3941 0.98185 -5.07938e-18
0.557885 0.0488177 0.5 -13.3038 0.990594 5.02433e-18
0.563876 0.0483607 0.5 -13.2207 0.998942 -1.88079e-36
0.569827 0.0479005 0.5 -13.1451 1.00699 1.19148e-21
0.575737 0.0474373 0.5 -13.0791 1.01498 -1.19924e-21
0.58164 0.0469687 0.5 -13.0133 1.02399 4.70198e-38
0.587536 0.0464941 0.5 -12.9349 1.03211 -4.71843e-18
0.593393 0.0460162 0.5 -12.8522 1.03886 -1.48569e-22
0.599208 0.0455357 0.5 -12.7743 1.04538 1.20666e-34
0.60498 0.045053 0.5 -12.7025 1.05173 5.32349e-34
0.610706 0.0445687 0.5 -12.6357 1.05777 1.09354e-21
0.616408 0.0440814 0.5 -12.5771 1.06428 1.27746e-22
0.622117 0.043588 0.5 -12.5107 1.07142 -4.34669e-18
0.627812 0.04309 0.5 -12.4335 1.07687 -4.29524e-18
0.633463 0.0425903 0.5 -12.3579 1.08182 8.48881e-18
0.639069 0.0420895 0.5 -12.2881 1.08666 8.38855e-18
0.644626 0.0415881 0.5 -12.224 1.09133 -4.14543e-18
0.650134 0.0410868 0.5 -12.1667 1.09598 -1.32243e-37
0.655639 0.0405812 0.5 -12.1153 1.10136 -3.98114e-18
0.661165 0.0400689 0.5 -12.0554 1.10701 -7.80513e-18
0.666665 0.039554 0.5 -11.9887 1.11125 -1.50463e-36
0.672117 0.0390389 0.5 -11.9262 1.11546 9.1726e-22
0.677519 0.038524 0.5 -11.8703 1.11979 -9.25913e-22
0.682868 0.0380099 0.5 -11.8209 1.1242 -1.58701e-22
0.688165 0.037497 0.5 -11.7808 1.12905 3.65109e-18
0.693484 0.0369779 0.5 -11.7477 1.13519 -3.44655e-35
0.698837 0.0364512 0.5 -11.7039 1.14097 8.28145e-22
0.704147 0.0359241 0.5 -11.6486 1.14496 1.36113e-22
0.709405 0.0353979 0.5 -11.59 1.1482 -3.32831e-18
0.714609 0.0348733 0.5 -11.5312 1.15092 3.27388e-18
0.719757 0.0343505 0.5 -11.4734 1.15322 7.75645e-22
0.724855 0.0338293 0.5 -11.4208 1.15565 -3.15982e-18
0.729999 0.0332999 0.5 -11.3654 1.15873 -1.52648e-22
0.73518 0.0327625 0.5 -11.299 1.16092 -2.93592e-18
0.740306 0.0322267 0.5 -11.2292 1.16219 -7.02532e-22
0.745375 0.0316932 0.5 -11.1622 1.16335 2.81873e-18
0.750386 0.0311622 0.5 -11.0988 1.1644 2.7585e-18
0.755336 0.0306343 0.5 -11.0387 1.16533 -2.69896e-18
0.76026 0.0301061 0.5 -10.9843 1.16661 2.60274e-18
0.765241 0.0295683 0.5 -10.9254 1.16855 -1.33724e-34
0.770246 0.0290241 0.5 -10.8563 1.16928 -4.51197e-35
0.775191 0.0284829 0.5 -10.786 1.16943 3.895e-35
0.780073 0.027945 0.5 -10.7185 1.16952 3.91936e-35
0.784891 0.0274108 0.5 -10.654 1.16951 2.6119e-22
0.789645 0.0268807 0.5 -10.5928 1.16946 -2.11991e-18
0.794414 0.0263459 0.5 -10.5348 1.16991 1.97958e-18
0.799254 0.0257999 0.5 -10.4682 1.17055 1.86357e-18
0.804082 0.0252514 0.5 -10.3927 1.1697 -7.81586e-35
0.808843 0.0247071 0.5 -10.3184 1.16853 1.70774e-18
0.813536 0.0241673 0.5 -10.2475 1.16729 -3.97038e-22
0.81816 0.0236326 0.5 -10.1799 1.16591 3.08756e-18
0.822721 0.0231023 0.5 -10.1183 1.1648 -1.45369e-18
0.827366 0.0225594 0.5 -10.0536 1.16439 -1.63063e-22
0.832084 0.0220045 0.5 -9.97603 1.16293 -2.38449e-18
0.836729 0.0214548 0.5 -9.89497 1.16044 1.09759e-18
0.841299 0.0209107 0.5 -9.81705 1.15784 -1.0003e-18
0.845793 0.0203728 0.5 -9.74248 1.15506 -8.99752e-19
0.85021 0.0198415 0.5 -9.67286 1.15234 6.46522e-38
0.854677 0.0193015 0.5 -9.60596 1.15031 -1.29919e-18
0.859239 0.0187469 0.5 -9.52725 1.14809 -7.1892e-23
0.863766 0.0181934 0.5 -9.43941 1.14419 4.14476e-19
0.868209 0.0176469 0.5 -9.35385 1.14011 4.3729e-23
0.872568 0.017108 0.5 -9.272 1.13597 3.85494e-39
0.87684 0.0165772 0.5 -9.19411 1.13179 -0
0.881165 0.0160373 0.5 -9.11794 1.12819 -2.15239e-42
0.885597 0.0154808 0.5 -9.02796 1.12428 -3.54455e-23
0.889995 0.0149253 0.5 -8.92744 1.11833 3.62113e-23
0.894296 0.0143788 0.5 -8.8311 1.11227 7.22883e-23
0.8985 0.013842 0.5 -8.73897 1.10601 6.79066e-19
0.902612 0.0133146 0.5 -8.65514 1.10011 -8.43706e-19
0.90685 0.0127685 0.5 -8.56681 1.09495 1.21982e-22
0.911199 0.0122047 0.5 -8.45855 1.08799 -1.10219e-18
0.915436 0.0116524 0.5 -8.34524 1.07942 2.5891e-18
0.919558 0.0111121 0.5 -8.23774 1.07077 -9.65405e-23
0.923564 0.0105848 0.5 -8.13711 1.06211 1.71264e-18
0.92766 0.0100432 0.5 -8.03688 1.05405 -1.26538e-22
0.931889 0.00948105 0.5 -7.91455 1.04468 -1.94338e-18
0.936032 0.00892713 0.5 -7.7798 1.03266 -2.19561e-18
0.940034 0.00838932 0.5 -7.64935 1.02025 1.56338e-22
0.943918 0.00786528 0.5 -7.52814 1.00809 2.72179e-18
0.947957 0.00731753 0.5 -7.39488 0.995911 -2.64482e-18
0.952111 0.00675118 0.5 -7.23203 0.980342 1.88079e-37
0.956082 0.0062066 0.5 -7.06348 0.962546 -2.09758e-22
0.959868 0.005685 0.5 -6.90821 0.945178 -1.85933e-18
0.963806 0.00514008 0.5 -6.74285 0.927537 3.49525e-18
0.967884 0.00457263 0.5 -6.53685 0.905497 -3.91504e-18
0.971729 0.00403453 0.5 -6.3225 0.880109 -4.44162e-18
0.97552 0.00350184 0.5 -6.118 0.854682 -4.51956e-18
0.979458 0.0029459 0.5 -5.89052 0.828444 1.45014e-22
0.983267 0.00240536 0.5 -5.58372 0.789398 -2.70947e-18
0.98706 0.00186472 0.5 -5.37246 0.762904 -1.54355e-22
0.990882 0.00131704 0.5 -4.82499 0.690442 -5.92901e-18
0.994678 0.000770466 0.5 -4.95008 0.708363 1.75735e-22
0.99832 0.00024378 0.5 -2.21603 0.803623 -3.69773e-21
0.00133235 0.00449653 0.5 -19.2735 -65.5163 5.69667e-40
0.00576479 0.0125392 0.5 -54.2 -63.1927 -1.50463e-36
0.0127073 0.018847 0.5 -45.1895 -33.2371 -2.41441e-17
0.0207688 0.0238748 0.5 -34.8073 -19.0564 -5.72696e-17
0.0291543 0.0279559 0.5 -28.1763 -12.4856 -7.99007e-21
0.037672 0.0313759 0.5 -23.8498 -8.9325 3.08521e-22
0.0464094 0.0343841 0.5 -20.6824 -6.70104 4.32223e-17
0.0551576 0.0370177 0.5 -18.4657 -5.27265 4.7952e-17
0.0639069 0.0393539 0.5 -16.6487 -4.23709 1.01303e-16
0.0727041 0.0414595 0.5 -15.242 -3.48536 -5.23783e-17
0.081414 0.0433437 0.5 -14.0684 -2.91409 2.76913e-17
0.090183 0.0450639 0.5 -13.089 -2.46309 -2.71631e-17
0.098871 0.0466203 0.5 -12.221 -2.09655 -1.06732e-21
0.107395 0.0480148 0.5 -11.5003 -1.80715 -8.839e-22
0.116087 0.049318 0.5 -10.8574 -1.5613 8.6911e-22
0.124618 0.0504925 0.5 -10.2864 -1.3557 9.26524e-22
0.132994 0.0515502 0.5 -9.83177 -1.19155 2.97905e-17
0.141535 0.0525408 0.5 -9.42957 -1.04784 2.9326e-17
0.149928 0.053435 0.5 -9.10023 -0.926824 1.54884e-17
0.158135 0.0542362 0.5 -8.88378 -0.827378 -4.21248e-23
0.166435 0.0549791 0.5 -9.32475 -0.78898 -1.50258e-17
0.174718 0.0556571 0.5 -10.7183 -0.824395 -2.35099e-37
0.182824 0.0562624 0.5 -12.8069 -0.89815 -1.51544e-17
0.190865 0.0568083 0.5 -15.6769 -1.00239 -4.54291e-22
0.198976 0.0573076 0.5 -18.7028 -1.08559 -1.14794e-41
0.20712 0.0577564 0.5 -20.6113 -1.06242 -3.89841e-34
0.215524 0.0581602 0.5 -20.9837 -0.931278 -6.68452e-18
0.224086 0.0585239 0.5 -20.8442 -0.837889 -6.69724e-18
0.231971 0.0588335 0.5 -20.9016 -0.792543 7.71698e-18
0.239768 0.0591111 0.5 -21.4127 -0.720303 1.06452e-22
0.246955 0.0592927 0.5 -19.1174 -0.277379 -1.79768e-22
0.00133235 -0.00449653 0.5 -19.2333 65.3703 0
0.00576479 -0.0125392 0.5 -53.8849 62.8024 -1.48931e-16
0.0127073 -0.018847 0.5 -44.7155 32.8734 4.72465e-17
0.0207688 -0.0238748 0.5 -34.6793 18.9711 2.8753e-17
0.0291543 -0.0279559 0.5 -28.0404 12.418 2.59549e-34
0.037672 -0.0313759 0.5 -23.8406 8.93118 5.3035e-39
0.0464094 -0.0343841 0.5 -20.809 6.74657 -9.56094e-39
0.0551576 -0.0370177 0.5 -18.4234 5.25452 9.0278e-36
0.0639069 -0.0393539 0.5 -16.6675 4.23989 -5.052e-17
0.0727041 -0.0414595 0.5 -15.2794 3.49412 5.24047e-17
0.081414 -0.0433437 0.5 -14.0966 2.91955 -1.68615e-21
0.090183 -0.0450639 0.5 -13.1007 2.46517 5.43496e-17
0.098871 -0.0466203 0.5 -12.241 2.1002 5.84206e-17
0.107395 -0.0480148 0.5 -11.5144 1.80983 2.88931e-17
0.116087 -0.049318 0.5 -10.8754 1.56406 -1.50463e-36
0.124618 -0.0504925 0.5 -10.3007 1.35773 -3.03595e-17
0.132994 -0.0515502 0.5 -9.85415 1.19429 -5.95817e-17
0.141535 -0.0525408 0.5 -9.4549 1.0508 -2.93478e-17
0.149928 -0.053435 0.5 -9.13084 0.929611 -9.45813e-22
0.158135 -0.0542362 0.5 -8.95582 0.833342 -1.53452e-17
0.166435 -0.0549791 0.5 -9.54596 0.807366 1.49997e-17
0.174718 -0.0556571 0.5 -11.082 0.852589 4.53699e-22
0.182824 -0.0562624 0.5 -13.7244 0.963226 -9.22517e-22
0.190865 -0.0568083 0.5 -16.8591 1.07973 4.52698e-22
0.198976 -0.0573076 0.5 -19.5651 1.13757 1.44014e-17
0.20712 -0.0577564 0.5 -20.9839 1.08291 -7.16229e-18
0.215524 -0.0581602 0.5 -21.0774 0.936253 6.68822e-18
0.224086 -0.0585239 0.5 -20.8372 0.838166 6.70467e-18
0.231971 -0.0588335 0.5 -20.8684 0.791269 1.17886e-22
0.239768 -0.0591111 0.5 -21.4019 0.718939 -1.0401e-22
0.246955 -0.0592927 0.5 -19.0653 0.279178 2.41501e-18
0.253478 -0.0594229 0.5 -18.1192 0.453086 -3.0468e-23
0.260394 -0.0595984 0.5 -20.3031 0.513051 8.93244e-40
0.267845 -0.0597569 0.5 -20.096 0.353993 2.09654e-22
0.275233 -0.059862 0.5 -18.946 0.200419 -2.49577e-22
0.282135 -0.059923 0.5 -18.4281 0.143531 -2.29077e-22
0.289403 -0.0599678 0.5 -18.4094 0.0932328 2.16341e-22
0.296942 -0.0599937 0.5 -18.333 0.0393676 -1.00987e-38
0.304465 -0.0599955 0.5 -18.1862 -0.0245181 -3.08567e-38
0.311708 -0.0599711 0.5 -17.9204 -0.0898879 1.82286e-18
0.318744 -0.0599229 0.5 -17.6642 -0.142188 6.90603e-38
0.325783 -0.0598535 0.5 -17.4909 -0.192132 7.48173e-35
0.332827 -0.0597638 0.5 -17.329 -0.238467 1.75334e-18
0.339871 -0.0596549 0.5 -17.1739 -0.281726 3.46443e-18
0.346848 -0.0595287 0.5 -17.0322 -0.323479 8.56637e-22
0.353736 -0.0593859 0.5 -16.8846 -0.365391 -3.47339e-18
0.360596 -0.0592257 0.5 -16.7198 -0.403515 8.4281e-22
0.367453 -0.0590487 0.5 -16.5647 -0.439009 3.23081e-23
0.3743 -0.0588558 0.5 -16.4263 -0.472377 -3.35065e-18
0.381124 -0.0586486 0.5 -16.3136 -0.50433 8.17127e-22
0.38787 -0.0584289 0.5 -16.1944 -0.53678 6.68377e-18
0.394554 -0.0581963 0.5 -16.0511 -0.56688 -2.82119e-37
0.401228 -0.0579495 0.5 -15.9104 -0.594816 -6.53072e-18
0.407888 -0.0576896 0.5 -15.7844 -0.621286 7.93601e-22
0.41453 -0.0574175 0.5 -15.6712 -0.646231 2.46854e-37
0.421133 -0.0571349 0.5 -15.5696 -0.670103 -3.17912e-18
0.427675 -0.0568427 0.5 -15.4594 -0.694997 -7.68773e-22
0.434175 -0.0565398 0.5 -15.3328 -0.717503 7.70726e-22
0.440657 -0.0562259 0.5 -15.2149 -0.738755 -1.59867e-36
0.447118 -0.0559019 0.5 -15.1052 -0.75871 6.13674e-18
0.453553 -0.0555685 0.5 -15.0027 -0.777231 7.36327e-22
0.459952 -0.0552271 0.5 -14.9165 -0.795636 6.03045e-18
0.466305 -0.054878 0.5 -14.8185 -0.814864 5.99683e-18
0.472621 -0.0545205 0.5 -14.7042 -0.831995 -1.18663e-17
0.478913 -0.0541543 0.5 -14.589 -0.847585 1.04356e-22
0.485178 -0.0537804 0.5 -14.4814 -0.862139 -5.81079e-18
0.491413 -0.0533994 0.5 -14.385 -0.876122 5.75345e-18
0.497615 -0.0530121 0.5 -14.3013 -0.889715 -6.90871e-22
0.503783 -0.0526186 0.5 -14.2181 -0.904536 1.37902e-21
0.509921 -0.0522183 0.5 -14.1188 -0.918097 -1.11842e-17
0.51603 -0.0518112 0.5 -14.0161 -0.929977 5.53299e-18
0.522108 -0.0513982 0.5 -13.9225 -0.94145 1.09516e-17
0.528152 -0.05098 0.5 -13.8376 -0.9524 5.42208e-18
0.534159 -0.0505573 0.5 -13.7615 -0.962876 6.50494e-22
0.54014 -0.0501296 0.5 -13.6951 -0.973949 -9.92236e-24
0.546102 -0.0496961 0.5 -13.6169 -0.985518 5.23803e-18
0.552038 -0.0492571 0.5 -13.5281 -0.995056 5.18409e-18
0.557939 -0.0488136 0.5 -13.4453 -1.00426 6.21018e-22
0.563803 -0.0483664 0.5 -13.37 -1.01311 -1.23968e-21
0.569628 -0.047916 0.5 -13.3026 -1.02164 4.95473e-22
0.575412 -0.047463 0.5 -13.2442 -1.0301 -6.02921e-22
0.58119 -0.0470047 0.5 -13.1838 -1.03919 -4.87396e-18
0.586964 -0.0465405 0.5 -13.1093 -1.04758 1.00439e-23
0.5927 -0.0460731 0.5 -13.0293 -1.05461 1.16495e-21
0.598397 -0.0456031 0.5 -12.953 -1.06128 -4.72155e-18
0.604052 -0.045131 0.5 -12.882 -1.06768 -4.67157e-18
0.609664 -0.0446572 0.5 -12.8159 -1.07379 -1.88079e-37
0.615243 -0.0441814 0.5 -12.7568 -1.07997 1.50463e-36
0.620829 -0.0436999 0.5 -12.6928 -1.08696 8.89829e-18
0.626413 -0.0432129 0.5 -12.6171 -1.09275 -1.69271e-36
0.631955 -0.0427242 0.5 -12.5406 -1.09773 -4.34815e-18
0.637454 -0.0422343 0.5 -12.4679 -1.10239 8.46356e-37
0.642907 -0.0417437 0.5 -12.4018 -1.107 4.24849e-18
0.648313 -0.041253 0.5 -12.3397 -1.11128 -4.20146e-18
0.653694 -0.0407603 0.5 -12.2848 -1.11582 -1.30089e-22
0.659096 -0.0402614 0.5 -12.2252 -1.12125 4.83789e-22
0.664496 -0.0397577 0.5 -12.1549 -1.12538 3.95412e-18
0.669852 -0.0392536 0.5 -12.0843 -1.12892 -3.90326e-18
0.675159 -0.0387495 0.5 -12.0172 -1.1323 4.18131e-35
0.680418 -0.0382459 0.5 -11.9548 -1.1356 -3.80181e-18
0.685626 -0.0377433 0.5 -11.8956 -1.13864 3.17755e-22
0.690816 -0.0372389 0.5 -11.8422 -1.14203 -3.65842e-18
0.696038 -0.0367272 0.5 -11.7832 -1.14611 -9.87415e-37
0.701263 -0.0362109 0.5 -11.7144 -1.14888 3.32289e-34
0.706438 -0.0356954 0.5 -11.6457 -1.15119 3.43067e-18
0.711561 -0.035181 0.5 -11.5802 -1.15333 -3.37669e-18
0.716633 -0.0346682 0.5 -11.5189 -1.15541 -3.3226e-18
0.72165 -0.0341574 0.5 -11.4606 -1.15729 -3.2702e-18
0.726654 -0.0336446 0.5 -11.4076 -1.15955 3.16241e-18
0.731704 -0.0331235 0.5 -11.3487 -1.16244 1.07553e-23
0.736758 -0.032598 0.5 -11.2801 -1.164 1.10157e-23
0.741759 -0.0320742 0.5 -11.2121 -1.16519 7.13117e-22
0.746705 -0.0315527 0.5 -11.1468 -1.1662 -6.98592e-22
0.751594 -0.0310337 0.5 -11.0858 -1.16722 6.84044e-22
0.756425 -0.0305178 0.5 -11.0278 -1.16809 -6.69556e-22
0.761255 -0.029999 0.5 -10.9742 -1.16935 3.2541e-22
0.766142 -0.0294707 0.5 -10.9142 -1.17112 2.49556e-18
0.771031 -0.0289385 0.5 -10.8453 -1.17161 -2.42992e-18
0.775861 -0.0284092 0.5 -10.777 -1.17179 -2.94366e-22
0.780632 -0.0278832 0.5 -10.7113 -1.17185 4.59021e-18
0.785341 -0.0273608 0.5 -10.6486 -1.17181 -2.22619e-18
0.789989 -0.0268423 0.5 -10.5895 -1.17179 2.35099e-37
0.79466 -0.0263184 0.5 -10.5327 -1.17224 0
0.799401 -0.0257833 0.5 -10.4665 -1.17276 4.70198e-38
0.804125 -0.0252465 0.5 -10.3923 -1.17189 1.8211e-18
0.808785 -0.0247137 0.5 -10.32 -1.17081 4.25242e-22
0.81338 -0.0241853 0.5 -10.2509 -1.16962 -1.66123e-18
0.817908 -0.0236617 0.5 -10.1847 -1.16825 -1.57805e-18
0.822369 -0.0231434 0.5 -10.1244 -1.16715 1.49441e-18
0.826908 -0.0226131 0.5 -10.0625 -1.16671 -1.67395e-22
0.831528 -0.0220701 0.5 -9.98766 -1.16549 2.45126e-18
0.836084 -0.0215313 0.5 -9.90785 -1.16306 -1.44993e-22
0.840568 -0.0209979 0.5 -9.83139 -1.16055 -1.43493e-42
0.844979 -0.0204704 0.5 -9.75842 -1.15792 -1.06864e-22
0.849317 -0.0199491 0.5 -9.68928 -1.1552 1.08707e-22
0.853667 -0.0194238 0.5 -9.62515 -1.15305 -1.37162e-35
0.858113 -0.0188842 0.5 -9.55205 -1.15126 0
0.862564 -0.0183407 0.5 -9.46699 -1.1477 0
0.866936 -0.0178038 0.5 -9.38279 -1.14377 -3.32615e-19
0.871227 -0.0172741 0.5 -9.30225 -1.1398 1.17549e-38
0.875436 -0.016752 0.5 -9.22454 -1.13564 -8.2561e-20
0.879628 -0.0162295 0.5 -9.1527 -1.13202 -4.96224e-20
0.88393 -0.0156905 0.5 -9.07102 -1.12875 1.7697e-19
0.88827 -0.0151435 0.5 -8.97485 -1.12351 1.76324e-38
0.892518 -0.014605 0.5 -8.87947 -1.1177 -6.6127e-23
0.896674 -0.0140755 0.5 -8.78837 -1.11174 1.53071e-22
0.900735 -0.0135557 0.5 -8.70197 -1.10566 -8.74514e-23
0.904824 -0.01303 0.5 -8.6212 -1.10031 9.08905e-19
0.909034 -0.0124858 0.5 -8.52544 -1.09487 2.07389e-18
0.913238 -0.0119394 0.5 -8.41384 -1.08681 1.49471e-22
0.917332 -0.0114042 0.5 -8.30598 -1.07845 1.42089e-18
0.921316 -0.010881 0.5 -8.20217 -1.06972 1.24307e-22
0.925241 -0.0103633 0.5 -8.10664 -1.06137 -1.15129e-22
0.929306 -0.00982488 0.5 -8.00003 -1.05334 1.84403e-18
0.933445 -0.00927338 0.5 -7.87053 -1.04252 -2.08383e-18
0.937451 -0.00873681 0.5 -7.73944 -1.03051 -2.34242e-18
0.941321 -0.00821597 0.5 -7.61276 -1.0181 2.61848e-18
0.945168 -0.00769601 0.5 -7.49326 -1.00611 -2.74806e-18
0.949167 -0.00715299 0.5 -7.35336 -0.993508 -2.79809e-18
0.953183 -0.00660441 0.5 -7.18826 -0.977027 3.1327e-18
0.957024 -0.006077 0.5 -7.02489 -0.959446 6.99609e-18
0.960743 -0.00556416 0.5 -6.87439 -0.942362 1.88079e-37
0.964631 -0.00502557 0.5 -6.70478 -0.924675 -9.40395e-38
0.968598 -0.00447292 0.5 -6.49625 -0.901695 -4.09691e-18
0.972318 -0.00395183 0.5 -6.2904 -0.876983 2.31742e-18
0.976051 -0.00342699 0.5 -6.08793 -0.851831 1.43054e-22
0.979926 -0.00287974 0.5 -5.85756 -0.825086 -4.80735e-18
0.983612 -0.00235633 0.5 -5.55698 -0.786452 5.62998e-18
0.987331 -0.00182587 0.5 -5.34938 -0.760448 -5.28079e-18
0.991079 -0.00128868 0.5 -4.80163 -0.68762 1.11277e-23
0.994786 -0.000754822 0.5 -4.93539 -0.706607 6.09586e-18
0.998359 -0.000238135 0.5 -2.21605 -0.80888 -3.60699e-18
