# wallShearStress  FACE_DATA 341
#  x  y  z  wallShearStress_x  wallShearStress_y  wallShearStress_z  
0.253551 0.0594249 0.5 -18.1254 -0.450316 3.63506e-18
0.260625 0.059604 0.5 -20.2857 -0.510092 -3.8068e-18
0.268301 0.0597641 0.5 -20.0166 -0.341854 3.33578e-18
0.275825 0.0598682 0.5 -18.8697 -0.194189 -1.00963e-18
0.282831 0.059928 0.5 -18.3965 -0.13879 -9.1146e-19
0.290299 0.0599719 0.5 -18.376 -0.0873133 2.46215e-35
0.298014 0.0599954 0.5 -18.3045 -0.0312153 -2.09396e-19
0.305661 0.0599931 0.5 -18.1225 0.0353816 -4.26606e-19
0.313016 0.0599637 0.5 -17.8405 0.0988707 -8.87915e-19
0.3202 0.0599102 0.5 -17.6042 0.151691 8.73495e-19
0.327394 0.0598346 0.5 -17.4276 0.201684 4.23715e-22
0.334592 0.0597382 0.5 -17.2568 0.247829 1.70381e-18
0.341788 0.059622 0.5 -17.1055 0.291321 -1.68224e-18
0.348891 0.0594882 0.5 -16.9664 0.334463 -9.98299e-24
0.355903 0.0593371 0.5 -16.8016 0.375563 -8.27739e-22
0.362912 0.0591677 0.5 -16.6305 0.413089 8.06736e-22
0.369915 0.058981 0.5 -16.4858 0.448833 -6.57198e-18
0.376908 0.0587783 0.5 -16.3479 0.482059 2.70364e-37
0.383848 0.0585616 0.5 -16.2136 0.513593 -3.24817e-18
0.39071 0.0583318 0.5 -16.062 0.545453 -1.03439e-23
0.397536 0.0580877 0.5 -15.9014 0.57443 -7.86285e-22
0.404349 0.0578293 0.5 -15.7491 0.601426 3.16243e-18
0.411146 0.0575577 0.5 -15.609 0.626541 -3.12666e-18
0.417921 0.0572738 0.5 -15.4871 0.650511 4.11423e-37
0.424635 0.05698 0.5 -15.3761 0.675088 -6.19356e-18
0.431287 0.0566758 0.5 -15.2486 0.698993 -6.13154e-18
0.437919 0.0563599 0.5 -15.1128 0.720092 1.10174e-22
0.444529 0.056033 0.5 -14.9889 0.740205 -5.99366e-18
0.451115 0.055696 0.5 -14.8773 0.759266 -2.06887e-36
0.457672 0.0553498 0.5 -14.7818 0.777716 5.87197e-18
0.464179 0.0549959 0.5 -14.6845 0.796674 -2.85649e-21
0.47064 0.0546337 0.5 -14.5708 0.814529 1.15773e-17
0.477077 0.0542621 0.5 -14.4531 0.830445 5.7208e-18
0.483487 0.0538822 0.5 -14.3464 0.845748 2.76461e-21
0.489866 0.0534947 0.5 -14.2493 0.860266 -2.09835e-23
0.496211 0.0531004 0.5 -14.1624 0.874071 -1.10963e-17
0.50252 0.0526998 0.5 -14.0799 0.888614 -1.35206e-21
0.508797 0.0522921 0.5 -13.9829 0.902832 5.43901e-18
0.515045 0.0518774 0.5 -13.8798 0.915051 5.38128e-18
0.52126 0.0514563 0.5 -13.7831 0.926665 5.32121e-18
0.52744 0.0510296 0.5 -13.6936 0.937563 5.26714e-18
0.533582 0.0505981 0.5 -13.6127 0.947979 1.22722e-35
0.539695 0.0501616 0.5 -13.5413 0.958796 -7.99336e-37
0.545788 0.0497191 0.5 -13.4597 0.97029 5.0838e-18
0.551854 0.0492707 0.5 -13.367 0.979759 -5.02905e-18
0.557885 0.0488177 0.5 -13.2767 0.98847 4.97332e-18
0.563876 0.0483607 0.5 -13.1936 0.996784 -1.83377e-36
0.569827 0.0479005 0.5 -13.1179 1.0048 1.17862e-21
0.575737 0.0474373 0.5 -13.0518 1.01275 -1.1863e-21
0.58164 0.0469687 0.5 -12.9859 1.02172 9.40395e-37
0.587536 0.0464941 0.5 -12.9074 1.0298 -4.66426e-18
0.593393 0.0460162 0.5 -12.8247 1.03651 -1.49311e-22
0.599208 0.0455357 0.5 -12.7466 1.043 -3.53413e-34
0.60498 0.045053 0.5 -12.6747 1.0493 3.5891e-34
0.610706 0.0445687 0.5 -12.6077 1.0553 1.07944e-21
0.616408 0.0440814 0.5 -12.5489 1.06177 1.28463e-22
0.622117 0.043588 0.5 -12.4824 1.06887 -4.28836e-18
0.627812 0.04309 0.5 -12.4051 1.07428 -4.23601e-18
0.633463 0.0425903 0.5 -12.3294 1.07918 8.36847e-18
0.639069 0.0420895 0.5 -12.2594 1.08398 8.26624e-18
0.644626 0.0415881 0.5 -12.1952 1.08862 -4.08325e-18
0.650134 0.0410868 0.5 -12.1377 1.09323 -1.38121e-37
0.655639 0.0405812 0.5 -12.0862 1.09857 -3.91792e-18
0.661165 0.0400689 0.5 -12.0262 1.10419 -7.67752e-18
0.666665 0.039554 0.5 -11.9595 1.10841 7.52316e-37
0.672117 0.0390389 0.5 -11.8971 1.11259 9.01079e-22
0.677519 0.038524 0.5 -11.8413 1.11692 -9.0958e-22
0.682868 0.0380099 0.5 -11.7922 1.12133 -1.59745e-22
0.688165 0.037497 0.5 -11.7525 1.1262 3.58142e-18
0.693484 0.0369779 0.5 -11.7197 1.13233 2.58139e-35
0.698837 0.0364512 0.5 -11.6749 1.138 8.11004e-22
0.704147 0.0359241 0.5 -11.6182 1.14182 1.36979e-22
0.709405 0.0353979 0.5 -11.5583 1.14491 -3.25582e-18
0.714609 0.0348733 0.5 -11.4986 1.14751 3.20003e-18
0.719757 0.0343505 0.5 -11.4401 1.14971 7.57187e-22
0.724855 0.0338293 0.5 -11.3869 1.15206 -3.08325e-18
0.729999 0.0332999 0.5 -11.331 1.15505 -1.53809e-22
0.73518 0.0327625 0.5 -11.2641 1.15717 -2.85919e-18
0.740306 0.0322267 0.5 -11.1939 1.15836 -6.83426e-22
0.745375 0.0316932 0.5 -11.1265 1.15945 2.73887e-18
0.750386 0.0311622 0.5 -11.0626 1.16044 2.67703e-18
0.755336 0.0306343 0.5 -11.0021 1.16129 -2.61576e-18
0.76026 0.0301061 0.5 -10.9472 1.1625 2.51893e-18
0.765241 0.0295683 0.5 -10.8878 1.16435 -5.81164e-35
0.770246 0.0290241 0.5 -10.8182 1.165 -4.85513e-35
0.775191 0.0284829 0.5 -10.7474 1.16507 1.88512e-34
0.780073 0.027945 0.5 -10.6795 1.16508 3.51868e-37
0.784891 0.0274108 0.5 -10.6144 1.16499 2.5013e-22
0.789645 0.0268807 0.5 -10.5528 1.16486 -2.02763e-18
0.794414 0.0263459 0.5 -10.4942 1.16522 1.88834e-18
0.799254 0.0257999 0.5 -10.4271 1.16577 1.77232e-18
0.804082 0.0252514 0.5 -10.351 1.16482 -4.13157e-35
0.808843 0.0247071 0.5 -10.2762 1.16357 1.61216e-18
0.813536 0.0241673 0.5 -10.2048 1.16224 -3.73146e-22
0.81816 0.0236326 0.5 -10.1366 1.16077 2.88704e-18
0.822721 0.0231023 0.5 -10.0744 1.15956 -1.35133e-18
0.827366 0.0225594 0.5 -10.0092 1.15906 -1.51092e-22
0.832084 0.0220045 0.5 -9.931 1.1575 -2.18244e-18
0.836729 0.0214548 0.5 -9.84939 1.15491 9.93987e-19
0.841299 0.0209107 0.5 -9.77091 1.15221 -8.93997e-19
0.845793 0.0203728 0.5 -9.69576 1.14933 -7.90637e-19
0.85021 0.0198415 0.5 -9.62555 1.14652 6.46522e-38
0.854677 0.0193015 0.5 -9.55803 1.14439 -1.08184e-18
0.859239 0.0187469 0.5 -9.47872 1.14205 -5.85972e-23
0.863766 0.0181934 0.5 -9.39033 1.13805 3.01971e-19
0.868209 0.0176469 0.5 -9.30421 1.13388 2.9666e-23
0.872568 0.017108 0.5 -9.2218 1.12964 1.39834e-39
0.87684 0.0165772 0.5 -9.14335 1.12535 -0
0.881165 0.0160373 0.5 -9.06658 1.12166 -1.43493e-42
0.885597 0.0154808 0.5 -8.97608 1.11764 -5.00265e-23
0.889995 0.0149253 0.5 -8.87509 1.1116 5.11113e-23
0.894296 0.0143788 0.5 -8.7783 1.10545 8.78052e-23
0.8985 0.013842 0.5 -8.68571 1.09909 8.09723e-19
0.902612 0.0133146 0.5 -8.60139 1.09311 -9.78256e-19
0.90685 0.0127685 0.5 -8.51255 1.08785 1.37362e-22
0.911199 0.0122047 0.5 -8.40385 1.08079 -1.23207e-18
0.915436 0.0116524 0.5 -8.29015 1.07213 2.8582e-18
0.919558 0.0111121 0.5 -8.18221 1.06339 -1.0509e-22
0.923564 0.0105848 0.5 -8.08106 1.05464 1.8574e-18
0.92766 0.0100432 0.5 -7.98022 1.04648 -1.27383e-22
0.931889 0.00948105 0.5 -7.85734 1.03698 -2.08124e-18
0.936032 0.00892713 0.5 -7.72212 1.02487 -2.3393e-18
0.940034 0.00838932 0.5 -7.59118 1.01236 1.6552e-22
0.943918 0.00786528 0.5 -7.46941 1.0001 2.87648e-18
0.947957 0.00731753 0.5 -7.3356 0.987809 -2.78558e-18
0.952111 0.00675118 0.5 -7.1724 0.972147 9.40395e-38
0.956082 0.0062066 0.5 -7.00362 0.954284 -2.19293e-22
0.959868 0.005685 0.5 -6.84809 0.936854 -1.94154e-18
0.963806 0.00514008 0.5 -6.68253 0.91915 3.64116e-18
0.967884 0.00457263 0.5 -6.47669 0.897084 -4.06919e-18
0.971729 0.00403453 0.5 -6.26279 0.871726 -4.60687e-18
0.97552 0.00350184 0.5 -6.05871 0.846337 -4.67863e-18
0.979458 0.0029459 0.5 -5.83218 0.820187 1.49695e-22
0.983267 0.00240536 0.5 -5.52691 0.781325 -2.79466e-18
0.98706 0.00186472 0.5 -5.31758 0.75508 -1.59064e-22
0.990882 0.00131704 0.5 -4.7738 0.683099 -6.09531e-18
0.994678 0.000770466 0.5 -4.90047 0.701257 1.80451e-22
0.99832 0.00024378 0.5 -2.19312 0.79837 -3.68191e-21
0.00133235 0.00449653 0.5 -19.2531 -65.4462 -1.68873e-39
0.00576479 0.0125392 0.5 -54.1699 -63.1569 -1.50463e-36
0.0127073 0.018847 0.5 -45.1687 -33.2218 -2.4499e-17
0.0207688 0.0238748 0.5 -34.7915 -19.0489 -5.65773e-17
0.0291543 0.0279559 0.5 -28.1622 -12.4812 -7.97415e-21
0.037672 0.0313759 0.5 -23.8376 -8.92934 3.07312e-22
0.0464094 0.0343841 0.5 -20.6734 -6.69748 4.30627e-17
0.0551576 0.0370177 0.5 -18.4588 -5.26876 4.77753e-17
0.0639069 0.0393539 0.5 -16.6414 -4.2338 1.00916e-16
0.0727041 0.0414595 0.5 -15.2338 -3.48291 -5.21783e-17
0.081414 0.0433437 0.5 -14.0613 -2.91268 2.75877e-17
0.090183 0.0450639 0.5 -13.0832 -2.46217 -2.70646e-17
0.098871 0.0466203 0.5 -12.2154 -2.09564 -1.06398e-21
0.107395 0.0480148 0.5 -11.4952 -1.8064 -8.80782e-22
0.116087 0.049318 0.5 -10.8532 -1.56083 8.66044e-22
0.124618 0.0504925 0.5 -10.2839 -1.35554 9.23327e-22
0.132994 0.0515502 0.5 -9.83283 -1.19184 2.96884e-17
0.141535 0.0525408 0.5 -9.43542 -1.04874 2.92296e-17
0.149928 0.053435 0.5 -9.10838 -0.927934 1.54415e-17
0.158135 0.0542362 0.5 -8.92549 -0.831269 -4.59169e-23
0.166435 0.0549791 0.5 -9.48496 -0.802299 -1.4972e-17
0.174718 0.0556571 0.5 -10.963 -0.842444 -3.46771e-37
0.182824 0.0562624 0.5 -13.5122 -0.947097 -1.50644e-17
0.190865 0.0568083 0.5 -16.6127 -1.06295 -4.51399e-22
0.198976 0.0573076 0.5 -19.3557 -1.12486 1.72192e-41
0.20712 0.0577564 0.5 -20.8529 -1.07576 -1.09721e-34
0.215524 0.0581602 0.5 -21.0029 -0.932392 -6.6649e-18
0.224086 0.0585239 0.5 -20.8006 -0.836135 -6.67594e-18
0.231971 0.0588335 0.5 -20.8526 -0.790648 7.69063e-18
0.239768 0.0591111 0.5 -21.3661 -0.718712 1.06062e-22
0.246955 0.0592927 0.5 -19.0761 -0.27677 -1.79105e-22
0.00133235 -0.00449653 0.5 -19.2374 65.385 -3.00927e-36
0.00576479 -0.0125392 0.5 -53.8686 62.7835 -1.48894e-16
0.0127073 -0.018847 0.5 -44.6899 32.8543 4.7292e-17
0.0207688 -0.0238748 0.5 -34.6591 18.959 2.86756e-17
0.0291543 -0.0279559 0.5 -28.0255 12.411 -1.11681e-33
0.037672 -0.0313759 0.5 -23.8263 8.92606 3.31383e-38
0.0464094 -0.0343841 0.5 -20.7974 6.74218 1.18353e-38
0.0551576 -0.0370177 0.5 -18.4116 5.25065 8.27548e-36
0.0639069 -0.0393539 0.5 -16.6502 4.23535 -5.04357e-17
0.0727041 -0.0414595 0.5 -15.2612 3.49002 5.22999e-17
0.081414 -0.0433437 0.5 -14.0799 2.91638 -1.68257e-21
0.090183 -0.0450639 0.5 -13.0826 2.46197 5.42277e-17
0.098871 -0.0466203 0.5 -12.2202 2.09652 5.82787e-17
0.107395 -0.0480148 0.5 -11.4886 1.80546 2.8816e-17
0.116087 -0.049318 0.5 -10.8399 1.55852 -1.50463e-36
0.124618 -0.0504925 0.5 -10.2477 1.35018 -3.02532e-17
0.132994 -0.0515502 0.5 -9.76974 1.18322 -5.93242e-17
0.141535 -0.0525408 0.5 -9.31848 1.03441 -2.91807e-17
0.149928 -0.053435 0.5 -8.95731 0.911503 -9.39488e-22
0.158135 -0.0542362 0.5 -8.65481 0.808663 -1.52372e-17
0.166435 -0.0549791 0.5 -8.40062 0.717329 1.50183e-17
0.174718 -0.0556571 0.5 -8.35698 0.648081 4.62229e-22
0.182824 -0.0562624 0.5 -8.97692 0.629587 -9.41557e-22
0.190865 -0.0568083 0.5 -10.5653 0.671297 4.629e-22
0.198976 -0.0573076 0.5 -13.4096 0.772241 1.45667e-17
0.20712 -0.0577564 0.5 -16.7845 0.85977 -7.15558e-18
0.215524 -0.0581602 0.5 -19.2196 0.849851 6.63137e-18
0.224086 -0.0585239 0.5 -20.4493 0.821078 6.63442e-18
0.231971 -0.0588335 0.5 -21.059 0.798138 1.16794e-22
0.239768 -0.0591111 0.5 -21.7363 0.730145 -1.03048e-22
0.246955 -0.0592927 0.5 -19.396 0.283956 2.39921e-18
0.253478 -0.0594229 0.5 -18.4209 0.460666 -3.02523e-23
0.260394 -0.0595984 0.5 -20.5804 0.520042 1.1648e-38
0.267845 -0.0597569 0.5 -20.3468 0.358354 2.08521e-22
0.275233 -0.059862 0.5 -19.1834 0.202856 -2.4823e-22
0.282135 -0.059923 0.5 -18.6669 0.145292 -2.27813e-22
0.289403 -0.0599678 0.5 -18.6488 0.0943511 2.15147e-22
0.296942 -0.0599937 0.5 -18.5672 0.0397904 -1.99177e-39
0.304465 -0.0599955 0.5 -18.4129 -0.0249012 -1.32243e-38
0.311708 -0.0599711 0.5 -18.1381 -0.0910668 1.81344e-18
0.318744 -0.0599229 0.5 -17.8719 -0.143953 1.08733e-37
0.325783 -0.0598535 0.5 -17.6878 -0.194385 -2.59784e-36
0.332827 -0.0597638 0.5 -17.5146 -0.241104 1.74435e-18
0.339871 -0.0596549 0.5 -17.3485 -0.284669 3.44665e-18
0.346848 -0.0595287 0.5 -17.1966 -0.32668 8.52235e-22
0.353736 -0.0593859 0.5 -17.0391 -0.368814 -3.45548e-18
0.360596 -0.0592257 0.5 -16.8645 -0.407085 8.38457e-22
0.367453 -0.0590487 0.5 -16.7 -0.442674 3.22005e-23
0.3743 -0.0588558 0.5 -16.5532 -0.476102 -3.33307e-18
0.381124 -0.0586486 0.5 -16.4331 -0.508092 8.12822e-22
0.38787 -0.0584289 0.5 -16.3073 -0.540582 6.64811e-18
0.394554 -0.0581963 0.5 -16.1584 -0.570723 -1.41059e-36
0.401228 -0.0579495 0.5 -16.0129 -0.598704 -6.49489e-18
0.407888 -0.0576896 0.5 -15.8827 -0.62521 7.89215e-22
0.41453 -0.0574175 0.5 -15.7654 -0.650167 -1.17549e-38
0.421133 -0.0571349 0.5 -15.6596 -0.67403 -3.16092e-18
0.427675 -0.0568427 0.5 -15.5454 -0.698914 -7.6428e-22
0.434175 -0.0565398 0.5 -15.415 -0.721396 7.66222e-22
0.440657 -0.0562259 0.5 -15.2937 -0.742622 -8.93376e-37
0.447118 -0.0559019 0.5 -15.1811 -0.762553 6.09931e-18
0.453553 -0.0555685 0.5 -15.0766 -0.781096 7.31706e-22
0.459952 -0.0552271 0.5 -14.9862 -0.799385 5.99226e-18
0.466305 -0.054878 0.5 -14.8834 -0.81846 5.95823e-18
0.472621 -0.0545205 0.5 -14.7655 -0.835479 -1.17885e-17
0.478913 -0.0541543 0.5 -14.6475 -0.851 1.04621e-22
0.485178 -0.0537804 0.5 -14.5378 -0.865506 -5.77108e-18
0.491413 -0.0533994 0.5 -14.4394 -0.879449 5.71331e-18
0.497615 -0.0530121 0.5 -14.3539 -0.893005 -6.85905e-22
0.503783 -0.0526186 0.5 -14.2691 -0.907794 1.36901e-21
0.509921 -0.0522183 0.5 -14.1682 -0.921316 -1.11014e-17
0.51603 -0.0518112 0.5 -14.064 -0.933154 5.4911e-18
0.522108 -0.0513982 0.5 -13.969 -0.944595 1.08668e-17
0.528152 -0.05098 0.5 -13.8829 -0.955519 5.37911e-18
0.534159 -0.0505573 0.5 -13.8058 -0.965972 6.45161e-22
0.54014 -0.0501296 0.5 -13.7383 -0.977017 -9.95855e-24
0.546102 -0.0496961 0.5 -13.6588 -0.988546 5.19364e-18
0.552038 -0.0492571 0.5 -13.5686 -0.998023 5.13913e-18
0.557939 -0.0488136 0.5 -13.4843 -1.00716 6.15434e-22
0.563803 -0.0483664 0.5 -13.4076 -1.01594 -1.2284e-21
0.569628 -0.047916 0.5 -13.3386 -1.02439 4.89257e-22
0.575412 -0.047463 0.5 -13.2802 -1.03288 -5.97093e-22
0.58119 -0.0470047 0.5 -13.2205 -1.04207 -4.82626e-18
0.586964 -0.0465405 0.5 -13.1465 -1.05053 1.00905e-23
0.5927 -0.0460731 0.5 -13.0664 -1.05759 1.15297e-21
0.598397 -0.0456031 0.5 -12.9897 -1.06427 -4.67172e-18
0.604052 -0.045131 0.5 -12.9182 -1.07065 -4.62099e-18
0.609664 -0.0446572 0.5 -12.8515 -1.07674 8.46356e-37
0.615243 -0.0441814 0.5 -12.7918 -1.0829 3.38542e-36
0.620829 -0.0436999 0.5 -12.7272 -1.08988 8.79426e-18
0.626413 -0.0432129 0.5 -12.6508 -1.09564 -3.19734e-36
0.631955 -0.0427242 0.5 -12.5734 -1.10057 -4.29453e-18
0.637454 -0.0422343 0.5 -12.4999 -1.10519 1.12847e-36
0.642907 -0.0417437 0.5 -12.4329 -1.10973 4.19311e-18
0.648313 -0.041253 0.5 -12.3698 -1.11395 -4.14516e-18
0.653694 -0.0407603 0.5 -12.314 -1.11843 -1.30774e-22
0.659096 -0.0402614 0.5 -12.2534 -1.12379 4.76834e-22
0.664496 -0.0397577 0.5 -12.1822 -1.12786 3.89644e-18
0.669852 -0.0392536 0.5 -12.1106 -1.13134 -3.8446e-18
0.675159 -0.0387495 0.5 -12.0427 -1.13465 2.48771e-34
0.680418 -0.0382459 0.5 -11.9795 -1.13788 -3.74108e-18
0.685626 -0.0377433 0.5 -11.9195 -1.14087 3.09384e-22
0.690816 -0.0372389 0.5 -11.8654 -1.14421 -3.59624e-18
0.696038 -0.0367272 0.5 -11.8056 -1.14823 1.41059e-37
0.701263 -0.0362109 0.5 -11.7361 -1.15096 4.06204e-34
0.706438 -0.0356954 0.5 -11.6668 -1.15321 3.36636e-18
0.711561 -0.035181 0.5 -11.6006 -1.15531 -3.31118e-18
0.716633 -0.0346682 0.5 -11.5387 -1.15734 -3.25585e-18
0.72165 -0.0341574 0.5 -11.4798 -1.15916 -3.20216e-18
0.726654 -0.0336446 0.5 -11.4261 -1.16137 3.09422e-18
0.731704 -0.0331235 0.5 -11.3665 -1.16419 1.08252e-23
0.736758 -0.032598 0.5 -11.2971 -1.16569 1.1087e-23
0.741759 -0.0320742 0.5 -11.2283 -1.1668 6.95887e-22
0.746705 -0.0315527 0.5 -11.1622 -1.16774 -6.8102e-22
0.751594 -0.0310337 0.5 -11.1003 -1.16868 6.66117e-22
0.756425 -0.0305178 0.5 -11.0415 -1.16947 -6.5126e-22
0.761255 -0.029999 0.5 -10.9871 -1.17065 3.16328e-22
0.766142 -0.0294707 0.5 -10.9263 -1.17234 2.42114e-18
0.771031 -0.0289385 0.5 -10.8565 -1.17274 -2.35398e-18
0.775861 -0.0284092 0.5 -10.7874 -1.17284 -2.8494e-22
0.780632 -0.0278832 0.5 -10.7209 -1.17281 4.43177e-18
0.785341 -0.0273608 0.5 -10.6573 -1.17269 -2.14524e-18
0.789989 -0.0268423 0.5 -10.5974 -1.17258 4.70198e-37
0.79466 -0.0263184 0.5 -10.5398 -1.17295 0
0.799401 -0.0257833 0.5 -10.4728 -1.17338 1.88079e-37
0.804125 -0.0252465 0.5 -10.3978 -1.17242 1.73748e-18
0.808785 -0.0247137 0.5 -10.3248 -1.17127 4.04352e-22
0.81338 -0.0241853 0.5 -10.255 -1.17 -1.57363e-18
0.817908 -0.0236617 0.5 -10.188 -1.16855 -1.48837e-18
0.822369 -0.0231434 0.5 -10.127 -1.16736 1.40253e-18
0.826908 -0.0226131 0.5 -10.0644 -1.16685 -1.56675e-22
0.831528 -0.0220701 0.5 -9.98881 -1.16553 2.27085e-18
0.836084 -0.0215313 0.5 -9.90823 -1.16301 -1.33759e-22
0.840568 -0.0209979 0.5 -9.83097 -1.16041 7.17465e-43
0.844979 -0.0204704 0.5 -9.75721 -1.15768 -9.49387e-23
0.849317 -0.0199491 0.5 -9.68726 -1.15486 9.65765e-23
0.853667 -0.0194238 0.5 -9.6223 -1.15262 1.90065e-35
0.858113 -0.0188842 0.5 -9.54834 -1.15072 0
0.862564 -0.0183407 0.5 -9.46239 -1.14704 2.93874e-38
0.866936 -0.0178038 0.5 -9.3773 -1.14301 -2.29784e-19
0.871227 -0.0172741 0.5 -9.29586 -1.13892 -1.17549e-38
0.875436 -0.016752 0.5 -9.21727 -1.13465 2.62867e-20
0.879628 -0.0162295 0.5 -9.14454 -1.13092 -1.58153e-19
0.88393 -0.0156905 0.5 -9.06193 -1.12752 2.82382e-19
0.88827 -0.0151435 0.5 -8.9648 -1.12215 4.70198e-38
0.892518 -0.014605 0.5 -8.86847 -1.11622 -7.98847e-23
0.896674 -0.0140755 0.5 -8.77641 -1.11013 1.81344e-22
0.900735 -0.0135557 0.5 -8.68904 -1.10392 -1.01988e-22
0.904824 -0.01303 0.5 -8.6073 -1.09844 1.02536e-18
0.909034 -0.0124858 0.5 -8.51054 -1.09287 2.30393e-18
0.913238 -0.0119394 0.5 -8.39792 -1.08466 1.64022e-22
0.917332 -0.0114042 0.5 -8.28906 -1.07615 1.54451e-18
0.921316 -0.010881 0.5 -8.18425 -1.06729 1.25202e-22
0.925241 -0.0103633 0.5 -8.08772 -1.0588 -1.23087e-22
0.929306 -0.00982488 0.5 -7.98008 -1.05062 1.96623e-18
0.933445 -0.00927338 0.5 -7.84953 -1.03965 -2.21129e-18
0.937451 -0.00873681 0.5 -7.71741 -1.02749 -2.47552e-18
0.941321 -0.00821597 0.5 -7.5897 -1.01493 2.75763e-18
0.945168 -0.00769601 0.5 -7.46917 -1.00279 -2.88519e-18
0.949167 -0.00715299 0.5 -7.32825 -0.990035 -2.92949e-18
0.953183 -0.00660441 0.5 -7.16215 -0.973404 3.27124e-18
0.957024 -0.006077 0.5 -6.99786 -0.955682 7.2887e-18
0.960743 -0.00556416 0.5 -6.84649 -0.938467 0
0.964631 -0.00502557 0.5 -6.67608 -0.920653 -9.40395e-38
0.968598 -0.00447292 0.5 -6.46695 -0.897571 -4.24342e-18
0.972318 -0.00395183 0.5 -6.26071 -0.872792 2.39628e-18
0.976051 -0.00342699 0.5 -6.05806 -0.847607 1.47574e-22
0.979926 -0.00287974 0.5 -5.82797 -0.820881 -4.95555e-18
0.983612 -0.00235633 0.5 -5.52828 -0.782362 5.79537e-18
0.987331 -0.00182587 0.5 -5.32208 -0.756547 -5.42773e-18
0.991079 -0.00128868 0.5 -4.77729 -0.684127 1.11276e-23
0.994786 -0.000754822 0.5 -4.91443 -0.703614 6.24594e-18
0.998359 -0.000238135 0.5 -2.21214 -0.806325 -3.69528e-18
